 written on 12Oct2020 at 18:27:38 
           6
         617
    4    3    2    2    2    1    2    2    1    1    2    3    2    2    2
    3    6    2    2    2    1    2    2    1    1    2    2    1    1    1
    2    2    1    1    1    1    2    2    1    1    1    1    1    2    2
    1    1    1    1    1    1    2    6    2    2    2    2    2    2    2
    6    2    2    3    1    1    1    3    2    1    1    1    1    2    2
    1    1    1    1    1    2    2    1    1    1    1    1    1    2    3
    1    1    1    1    1    1    1    3    1    1    1    1    1    1    1
    1    2    1    1    1    1    1    1    1    2    2    1    1    1    1
    1    1    2    3    2    2    2    3    2    1    2    2    1    1    1
    1    2    4    1    1    1    1    1    1    1    4    1    1    1    1
    1    1    1    1    2    1    1    1    1    1    1    1    2    1    1
    1    1    1    1    1    1    2    1    1    1    1    1    1    1    2
    1    1    1    1    1    1    1    1    2    1    1    1    1    1    2
    2    1    1    2    4    3    2    1    1    2    2    1    1    1    1
    1    2    1    1    1    1    1    1    1    1    2    1    1    1    1
    1    1    1    2    1    1    1    1    1    1    1    1    2    1    1
    1    1    1    1    1    2    1    1    1    1    1    1    1    1    3
    1    1    1    1    1    1    1    3    2    1    1    1    1    2    2
    1    2    2    2    2    1    1    1    2    2    1    1    1    1    1
    1    2    2    1    1    1    1    1    1    1    2    1    1    1    1
    1    1    1    1    2    1    1    1    1    1    1    1    2    1    1
    1    1    1    1    1    1    2    1    1    1    1    1    1    1    2
    2    1    1    1    1    1    1    2    2    1    1    1    2    2    2
    2    1    2    2    1    1    1    1    2    3    1    1    1    1    1
    1    1    3    1    1    1    1    1    1    1    1    2    1    1    1
    1    1    1    1    2    1    1    1    1    1    1    1    1    2    1
    1    1    1    1    1    1    2    1    1    1    1    1    1    1    1
    2    1    1    1    1    1    2    2    1    1    2    3    4    2    1
    1    2    2    1    1    1    1    1    2    1    1    1    1    1    1
    1    1    2    1    1    1    1    1    1    1    2    1    1    1    1
    1    1    1    1    2    1    1    1    1    1    1    1    2    1    1
    1    1    1    1    1    1    4    1    1    1    1    1    1    1    4
    2    1    1    1    1    2    2    1    2    3    2    2    2    3    2
    1    1    1    1    1    1    2    2    1    1    1    1    1    1    1
    2    1    1    1    1    1    1    1    1    3    1    1    1    1    1
    1    1    3    2    1    1    1    1    1    1    2    2    1    1    1
    1    1    2    2    1    1    1    1    2    3    1    1    1    3    2
    2    6    2    2    2    2    2    2    2    6    2    1    1    1    1
    1    1    2    2    1    1    1    1    1    2    2    1    1    1    1
    2    2    1    1    1    2    2    1    1    2    2    1    2    2    2
    6    3    2    2    2    3    2    1    1    2    2    1    2    2    2
    3    4
   -6    2    2    1    1    0.040723   -0.001224
   -6    2    2    2    1    0.010378   -0.005570
   -6    2    2    3    1   -0.002488   -0.003294
   -6    2    2    4    1   -0.019336   -0.000861
   -6    2    2    5    1   -0.008155   -0.003420
   -6    2    2    6    1    0.007147    0.003418
   -6    2    2    1    2    0.007382    0.001349
   -6    2    2    2    2    0.016660    0.000182
   -6    2    2    3    2    0.002447   -0.000478
   -6    2    2    4    2   -0.000191   -0.000881
   -6    2    2    5    2    0.008087    0.000633
   -6    2    2    6    2    0.000322   -0.002349
   -6    2    2    1    3   -0.000188   -0.002777
   -6    2    2    2    3    0.000117   -0.000840
   -6    2    2    3    3   -0.000623   -0.000187
   -6    2    2    4    3   -0.000081    0.000682
   -6    2    2    5    3    0.000352   -0.000003
   -6    2    2    6    3   -0.000919    0.000061
   -6    2    2    1    4    0.013801   -0.000896
   -6    2    2    2    4   -0.000040    0.000931
   -6    2    2    3    4   -0.001103   -0.000259
   -6    2    2    4    4   -0.003178   -0.000005
   -6    2    2    5    4    0.001678    0.001057
   -6    2    2    6    4   -0.000523    0.000050
   -6    2    2    1    5   -0.010955   -0.001037
   -6    2    2    2    5    0.007250    0.000486
   -6    2    2    3    5    0.002500    0.000392
   -6    2    2    4    5    0.001806   -0.000901
   -6    2    2    5    5    0.013915    0.001049
   -6    2    2    6    5   -0.001803   -0.002506
   -6    2    2    1    6    0.001321   -0.005171
   -6    2    2    2    6    0.000042    0.002214
   -6    2    2    3    6    0.000380    0.000732
   -6    2    2    4    6   -0.000196    0.000459
   -6    2    2    5    6   -0.001153    0.002977
   -6    2    2    6    6   -0.000814    0.000183
   -5   -1    3    1    1    0.001613    0.000736
   -5   -1    3    2    1   -0.004020   -0.000683
   -5   -1    3    3    1   -0.002271   -0.001931
   -5   -1    3    4    1   -0.001519   -0.001089
   -5   -1    3    5    1    0.000768   -0.005341
   -5   -1    3    6    1    0.000660    0.003002
   -5   -1    3    1    2   -0.003873    0.001893
   -5   -1    3    2    2   -0.006517   -0.000697
   -5   -1    3    3    2   -0.000729   -0.001006
   -5   -1    3    4    2    0.000813    0.000415
   -5   -1    3    5    2   -0.002528   -0.000445
   -5   -1    3    6    2    0.000391    0.001289
   -5   -1    3    1    3   -0.003090    0.000659
   -5   -1    3    2    3   -0.000686    0.000765
   -5   -1    3    3    3   -0.000035   -0.000057
   -5   -1    3    4    3    0.001320   -0.000640
   -5   -1    3    5    3   -0.000197   -0.000745
   -5   -1    3    6    3    0.000149   -0.000476
   -5   -1    3    1    4   -0.001884    0.003401
   -5   -1    3    2    4    0.000765   -0.002150
   -5   -1    3    3    4    0.001418   -0.000186
   -5   -1    3    4    4    0.000781   -0.000515
   -5   -1    3    5    4    0.003269   -0.004571
   -5   -1    3    6    4    0.000863    0.000003
   -5   -1    3    1    5    0.001888    0.005608
   -5   -1    3    2    5   -0.002866   -0.000352
   -5   -1    3    3    5   -0.000138   -0.000114
   -5   -1    3    4    5    0.002591   -0.000886
   -5   -1    3    5    5   -0.004102    0.000683
   -5   -1    3    6    5   -0.000158    0.000568
   -5   -1    3    1    6   -0.003369    0.000635
   -5   -1    3    2    6   -0.002159   -0.002092
   -5   -1    3    3    6   -0.000364    0.000032
   -5   -1    3    4    6    0.002235    0.000120
   -5   -1    3    5    6   -0.000674   -0.000903
   -5   -1    3    6    6   -0.001876   -0.000129
   -5    0    2    1    1    0.002853   -0.002260
   -5    0    2    2    1   -0.000713   -0.001140
   -5    0    2    3    1    0.000366   -0.002273
   -5    0    2    4    1   -0.000058   -0.001725
   -5    0    2    5    1   -0.005922   -0.003870
   -5    0    2    6    1   -0.001165    0.004217
   -5    0    2    1    2    0.003081    0.003212
   -5    0    2    2    2    0.002877   -0.002305
   -5    0    2    3    2    0.003514    0.000057
   -5    0    2    4    2    0.000622    0.000358
   -5    0    2    5    2    0.000316   -0.000827
   -5    0    2    6    2    0.000198    0.000706
   -5    0    2    1    3    0.001395   -0.000042
   -5    0    2    2    3   -0.001360    0.000390
   -5    0    2    3    3   -0.002521    0.001268
   -5    0    2    4    3   -0.000406    0.000030
   -5    0    2    5    3   -0.002018    0.000642
   -5    0    2    6    3    0.000908   -0.000866
   -5    0    2    1    4   -0.000933    0.001103
   -5    0    2    2    4    0.002581   -0.001283
   -5    0    2    3    4   -0.000542    0.000336
   -5    0    2    4    4    0.001122   -0.000165
   -5    0    2    5    4    0.003072   -0.001499
   -5    0    2    6    4   -0.001231   -0.000269
   -5    0    2    1    5   -0.001050    0.004030
   -5    0    2    2    5    0.003901   -0.001497
   -5    0    2    3    5    0.003244    0.001137
   -5    0    2    4    5   -0.000155    0.001098
   -5    0    2    5    5    0.004284    0.002503
   -5    0    2    6    5    0.001512   -0.000318
   -5    0    2    1    6    0.002465    0.000476
   -5    0    2    2    6   -0.002489    0.002193
   -5    0    2    3    6   -0.002724   -0.000286
   -5    0    2    4    6   -0.003345   -0.000065
   -5    0    2    5    6   -0.003615    0.002436
   -5    0    2    6    6    0.003141    0.001129
   -5    0    3    1    1   -0.004037    0.001813
   -5    0    3    2    1    0.007867    0.000113
   -5    0    3    3    1    0.004186    0.000428
   -5    0    3    4    1   -0.004577    0.002163
   -5    0    3    5    1    0.003377    0.003798
   -5    0    3    6    1    0.006079   -0.000208
   -5    0    3    1    2    0.003554   -0.003096
   -5    0    3    2    2    0.011117    0.001776
   -5    0    3    3    2    0.002173    0.000122
   -5    0    3    4    2   -0.000017   -0.001337
   -5    0    3    5    2    0.005922    0.000893
   -5    0    3    6    2    0.000709   -0.001923
   -5    0    3    1    3   -0.000705   -0.002564
   -5    0    3    2    3    0.000965   -0.000671
   -5    0    3    3    3    0.002349   -0.000404
   -5    0    3    4    3   -0.000088   -0.000610
   -5    0    3    5    3    0.003392   -0.001102
   -5    0    3    6    3   -0.002071    0.000375
   -5    0    3    1    4    0.006989   -0.001936
   -5    0    3    2    4   -0.002074    0.001945
   -5    0    3    3    4    0.000122   -0.000809
   -5    0    3    4    4   -0.001923   -0.000322
   -5    0    3    5    4   -0.004793    0.001854
   -5    0    3    6    4   -0.000211    0.000133
   -5    0    3    1    5    0.000529   -0.004710
   -5    0    3    2    5    0.003500    0.001804
   -5    0    3    3    5   -0.002144   -0.000064
   -5    0    3    4    5   -0.000275   -0.001901
   -5    0    3    5    5    0.002167   -0.002841
   -5    0    3    6    5   -0.002075   -0.001691
   -5    0    3    1    6   -0.004289   -0.000655
   -5    0    3    2    6   -0.000280    0.001331
   -5    0    3    3    6   -0.002568    0.000334
   -5    0    3    4    6   -0.000342    0.000091
   -5    0    3    5    6    0.004373    0.000227
   -5    0    3    6    6    0.002435   -0.000208
   -5    1    1    1    1   -0.019265   -0.001607
   -5    1    1    2    1   -0.004701   -0.003265
   -5    1    1    3    1    0.000421    0.001732
   -5    1    1    4    1    0.001767   -0.001549
   -5    1    1    5    1   -0.005522   -0.003472
   -5    1    1    6    1    0.003131    0.002077
   -5    1    1    1    2   -0.005749    0.002459
   -5    1    1    2    2    0.006899    0.000128
   -5    1    1    3    2    0.003215    0.001322
   -5    1    1    4    2    0.001901   -0.000301
   -5    1    1    5    2    0.009355    0.000212
   -5    1    1    6    2   -0.001921   -0.002640
   -5    1    1    1    3    0.001063   -0.001912
   -5    1    1    2    3    0.002764   -0.001096
   -5    1    1    3    3   -0.002272    0.000045
   -5    1    1    4    3   -0.000967    0.001082
   -5    1    1    5    3    0.004671    0.000992
   -5    1    1    6    3    0.000320   -0.000329
   -5    1    1    1    4   -0.005010    0.000685
   -5    1    1    2    4    0.001557    0.000405
   -5    1    1    3    4   -0.000567   -0.000198
   -5    1    1    4    4    0.001031    0.000422
   -5    1    1    5    4    0.001869    0.000367
   -5    1    1    6    4   -0.001296   -0.000033
   -5    1    1    1    5   -0.006568    0.001699
   -5    1    1    2    5    0.009511    0.000215
   -5    1    1    3    5    0.006536   -0.000724
   -5    1    1    4    5    0.002271    0.000402
   -5    1    1    5    5    0.013557    0.001168
   -5    1    1    6    5   -0.002703   -0.002297
   -5    1    1    1    6    0.003166   -0.002295
   -5    1    1    2    6   -0.000513    0.002856
   -5    1    1    3    6    0.001356    0.000754
   -5    1    1    4    6   -0.001126    0.000231
   -5    1    1    5    6   -0.001839    0.002749
   -5    1    1    6    6    0.000810   -0.000155
   -5    1    2    1    1   -0.008215   -0.002538
   -5    1    2    2    1    0.010447    0.002806
   -5    1    2    3    1    0.018975    0.002251
   -5    1    2    4    1    0.010747    0.001554
   -5    1    2    5    1    0.014829    0.002513
   -5    1    2    6    1   -0.012603   -0.002234
   -5    1    2    1    2   -0.008149   -0.002358
   -5    1    2    2    2   -0.003289    0.002894
   -5    1    2    3    2    0.003893    0.000301
   -5    1    2    4    2    0.007034    0.000252
   -5    1    2    5    2   -0.000589    0.000709
   -5    1    2    6    2   -0.005501   -0.001747
   -5    1    2    1    3   -0.004721    0.001426
   -5    1    2    2    3   -0.000378    0.000005
   -5    1    2    3    3   -0.001897    0.000002
   -5    1    2    4    3    0.001399   -0.000791
   -5    1    2    5    3   -0.002413   -0.001306
   -5    1    2    6    3   -0.000087   -0.000056
   -5    1    2    1    4   -0.002980    0.000816
   -5    1    2    2    4    0.000999    0.000035
   -5    1    2    3    4    0.001511   -0.000186
   -5    1    2    4    4    0.000247   -0.000266
   -5    1    2    5    4    0.001010   -0.000399
   -5    1    2    6    4   -0.000783    0.000190
   -5    1    2    1    5    0.002102   -0.000771
   -5    1    2    2    5   -0.003336    0.002160
   -5    1    2    3    5   -0.003683    0.000322
   -5    1    2    4    5    0.002801    0.000256
   -5    1    2    5    5   -0.008368    0.000750
   -5    1    2    6    5    0.000977   -0.000841
   -5    1    2    1    6    0.003650    0.000366
   -5    1    2    2    6    0.003674   -0.002863
   -5    1    2    3    6   -0.000656   -0.000740
   -5    1    2    4    6    0.000264    0.000391
   -5    1    2    5    6    0.001755   -0.002839
   -5    1    2    6    6    0.002116   -0.000607
   -5    1    3    1    1    0.011164    0.004865
   -5    1    3    2    1    0.001318   -0.000267
   -5    1    3    3    1    0.002680   -0.001458
   -5    1    3    4    1    0.012417    0.001496
   -5    1    3    5    1   -0.012115   -0.000242
   -5    1    3    6    1   -0.001092   -0.001212
   -5    1    3    1    2   -0.001682    0.003062
   -5    1    3    2    2   -0.012284   -0.002008
   -5    1    3    3    2    0.001294   -0.000174
   -5    1    3    4    2    0.002860    0.001756
   -5    1    3    5    2   -0.008091   -0.001717
   -5    1    3    6    2   -0.001897    0.003106
   -5    1    3    1    3   -0.000045    0.001605
   -5    1    3    2    3    0.000008    0.000096
   -5    1    3    3    3    0.004971    0.000141
   -5    1    3    4    3   -0.001249    0.001053
   -5    1    3    5    3   -0.000716    0.000867
   -5    1    3    6    3   -0.003055    0.000984
   -5    1    3    1    4    0.012609    0.000105
   -5    1    3    2    4    0.001763   -0.000722
   -5    1    3    3    4   -0.002465    0.000364
   -5    1    3    4    4   -0.004867   -0.000051
   -5    1    3    5    4   -0.004270   -0.000485
   -5    1    3    6    4    0.000222    0.000104
   -5    1    3    1    5   -0.000975    0.000440
   -5    1    3    2    5   -0.007605   -0.003015
   -5    1    3    3    5   -0.000771   -0.000946
   -5    1    3    4    5   -0.007005   -0.000114
   -5    1    3    5    5   -0.001659   -0.002393
   -5    1    3    6    5    0.000811    0.001916
   -5    1    3    1    6   -0.003240   -0.002648
   -5    1    3    2    6   -0.002047   -0.000505
   -5    1    3    3    6   -0.002623    0.000428
   -5    1    3    4    6   -0.000355    0.000207
   -5    1    3    5    6   -0.001388    0.002080
   -5    1    3    6    6    0.003781   -0.000328
   -5    2    0    1    1    0.002947   -0.000622
   -5    2    0    2    1    0.005055   -0.003792
   -5    2    0    3    1    0.000144   -0.000831
   -5    2    0    4    1   -0.004954   -0.001035
   -5    2    0    5    1    0.001120   -0.005632
   -5    2    0    6    1    0.001546   -0.000044
   -5    2    0    1    2    0.000296    0.002807
   -5    2    0    2    2    0.001494    0.001996
   -5    2    0    3    2   -0.002578   -0.000905
   -5    2    0    4    2   -0.000226    0.001628
   -5    2    0    5    2    0.002890    0.001671
   -5    2    0    6    2    0.000355   -0.002203
   -5    2    0    1    3    0.000455    0.000573
   -5    2    0    2    3    0.002029    0.000428
   -5    2    0    3    3   -0.001996   -0.001624
   -5    2    0    4    3    0.000403   -0.000288
   -5    2    0    5    3    0.002797    0.000492
   -5    2    0    6    3   -0.000330    0.000051
   -5    2    0    1    4   -0.000951    0.000397
   -5    2    0    2    4   -0.000211    0.000586
   -5    2    0    3    4    0.001852   -0.000059
   -5    2    0    4    4    0.002183    0.000253
   -5    2    0    5    4    0.000728    0.000833
   -5    2    0    6    4   -0.003043   -0.000053
   -5    2    0    1    5   -0.007605    0.005434
   -5    2    0    2    5   -0.000863    0.001490
   -5    2    0    3    5   -0.001540   -0.000892
   -5    2    0    4    5    0.003239    0.000881
   -5    2    0    5    5    0.005100    0.000378
   -5    2    0    6    5   -0.001956   -0.002680
   -5    2    0    1    6    0.006636   -0.003681
   -5    2    0    2    6    0.000231   -0.000969
   -5    2    0    3    6   -0.000559    0.000784
   -5    2    0    4    6   -0.001227    0.000085
   -5    2    0    5    6   -0.001435    0.000175
   -5    2    0    6    6    0.002028   -0.000552
   -5    2    1    1    1   -0.004106   -0.001274
   -5    2    1    2    1   -0.006299    0.004959
   -5    2    1    3    1   -0.005123    0.002292
   -5    2    1    4    1    0.000861    0.000943
   -5    2    1    5    1    0.001711    0.006675
   -5    2    1    6    1    0.002154   -0.004030
   -5    2    1    1    2   -0.003370   -0.003200
   -5    2    1    2    2   -0.010784   -0.000366
   -5    2    1    3    2   -0.005782    0.000132
   -5    2    1    4    2   -0.004091    0.000488
   -5    2    1    5    2   -0.006446    0.000543
   -5    2    1    6    2    0.001544    0.001373
   -5    2    1    1    3   -0.003433    0.001450
   -5    2    1    2    3   -0.001186    0.000104
   -5    2    1    3    3    0.000244    0.000307
   -5    2    1    4    3   -0.000661    0.000242
   -5    2    1    5    3   -0.003271    0.000020
   -5    2    1    6    3    0.000691    0.000510
   -5    2    1    1    4   -0.007144    0.001842
   -5    2    1    2    4    0.001675   -0.001260
   -5    2    1    3    4    0.002235   -0.000559
   -5    2    1    4    4    0.001850   -0.000367
   -5    2    1    5    4    0.000928   -0.001376
   -5    2    1    6    4   -0.000360    0.000036
   -5    2    1    1    5   -0.002295   -0.004776
   -5    2    1    2    5   -0.005296   -0.000491
   -5    2    1    3    5    0.005136    0.000702
   -5    2    1    4    5    0.000420    0.001194
   -5    2    1    5    5   -0.005453    0.001480
   -5    2    1    6    5   -0.004907    0.002202
   -5    2    1    1    6    0.004614    0.002570
   -5    2    1    2    6   -0.002149   -0.002979
   -5    2    1    3    6   -0.001304   -0.000289
   -5    2    1    4    6   -0.001296   -0.000231
   -5    2    1    5    6   -0.002014   -0.002634
   -5    2    1    6    6   -0.001157   -0.000015
   -5    2    2    1    1   -0.020519    0.004840
   -5    2    2    2    1   -0.016715   -0.005631
   -5    2    2    3    1    0.006046   -0.002267
   -5    2    2    4    1    0.001335    0.000776
   -5    2    2    5    1   -0.003059   -0.008325
   -5    2    2    6    1   -0.016314    0.003250
   -5    2    2    1    2    0.004802    0.000354
   -5    2    2    2    2   -0.001561   -0.002591
   -5    2    2    3    2   -0.004396    0.000043
   -5    2    2    4    2   -0.005958   -0.001187
   -5    2    2    5    2    0.000547   -0.002233
   -5    2    2    6    2   -0.000936    0.001553
   -5    2    2    1    3   -0.003839   -0.002548
   -5    2    2    2    3    0.002810    0.000825
   -5    2    2    3    3    0.000984    0.000602
   -5    2    2    4    3   -0.001275   -0.000904
   -5    2    2    5    3    0.005278    0.000238
   -5    2    2    6    3   -0.000009   -0.000988
   -5    2    2    1    4   -0.000610   -0.002563
   -5    2    2    2    4   -0.000616    0.001575
   -5    2    2    3    4    0.001400    0.000849
   -5    2    2    4    4    0.001037    0.000144
   -5    2    2    5    4   -0.001479    0.002055
   -5    2    2    6    4   -0.001013    0.000074
   -5    2    2    1    5    0.008109    0.003691
   -5    2    2    2    5    0.003018   -0.001819
   -5    2    2    3    5   -0.006196   -0.001403
   -5    2    2    4    5   -0.002115   -0.002428
   -5    2    2    5    5    0.001212   -0.004320
   -5    2    2    6    5    0.003884    0.000303
   -5    2    2    1    6    0.006702   -0.000434
   -5    2    2    2    6   -0.000415    0.002419
   -5    2    2    3    6    0.000518   -0.000808
   -5    2    2    4    6   -0.000501    0.000332
   -5    2    2    5    6    0.001332    0.003087
   -5    2    2    6    6   -0.000573    0.001326
   -5    2    3    1    1    0.003406   -0.007391
   -5    2    3    2    1    0.000949    0.000811
   -5    2    3    3    1   -0.006064    0.001727
   -5    2    3    4    1    0.003324   -0.001558
   -5    2    3    5    1    0.000424    0.004372
   -5    2    3    6    1   -0.005169    0.000859
   -5    2    3    1    2    0.000279   -0.001083
   -5    2    3    2    2    0.007189    0.001193
   -5    2    3    3    2   -0.003405    0.000558
   -5    2    3    4    2    0.000485   -0.000595
   -5    2    3    5    2    0.004386    0.002685
   -5    2    3    6    2    0.000742   -0.002461
   -5    2    3    1    3    0.003620    0.000794
   -5    2    3    2    3   -0.000114   -0.000348
   -5    2    3    3    3    0.000953   -0.000619
   -5    2    3    4    3    0.000995    0.000872
   -5    2    3    5    3   -0.003603    0.000274
   -5    2    3    6    3   -0.001888   -0.000906
   -5    2    3    1    4    0.006942    0.001086
   -5    2    3    2    4    0.002552   -0.001528
   -5    2    3    3    4   -0.000538   -0.001376
   -5    2    3    4    4   -0.003744    0.000544
   -5    2    3    5    4   -0.000450   -0.001473
   -5    2    3    6    4    0.002066   -0.000149
   -5    2    3    1    5    0.001484   -0.004816
   -5    2    3    2    5    0.005207    0.002665
   -5    2    3    3    5    0.000863    0.001515
   -5    2    3    4    5   -0.002465    0.001498
   -5    2    3    5    5    0.000706    0.006612
   -5    2    3    6    5    0.003707   -0.001492
   -5    2    3    1    6    0.002655    0.000700
   -5    2    3    2    6    0.001931    0.000302
   -5    2    3    3    6   -0.002644    0.000307
   -5    2    3    4    6   -0.000302   -0.000417
   -5    2    3    5    6    0.000180   -0.002291
   -5    2    3    6    6    0.003361   -0.000403
   -5    3   -1    1    1    0.001619   -0.000352
   -5    3   -1    2    1   -0.005197   -0.000623
   -5    3   -1    3    1   -0.003194   -0.002088
   -5    3   -1    4    1    0.000575   -0.003749
   -5    3   -1    5    1    0.003214   -0.004485
   -5    3   -1    6    1    0.001622   -0.000357
   -5    3   -1    1    2   -0.002763    0.002266
   -5    3   -1    2    2   -0.006443    0.000237
   -5    3   -1    3    2    0.001050   -0.000668
   -5    3   -1    4    2    0.001521    0.002059
   -5    3   -1    5    2   -0.003161    0.000875
   -5    3   -1    6    2   -0.000850    0.002091
   -5    3   -1    1    3   -0.001224    0.001918
   -5    3   -1    2    3    0.000373    0.000710
   -5    3   -1    3    3   -0.000054    0.000180
   -5    3   -1    4    3    0.000160   -0.000330
   -5    3   -1    5    3   -0.000787    0.000235
   -5    3   -1    6    3   -0.000373   -0.000301
   -5    3   -1    1    4   -0.000063   -0.001636
   -5    3   -1    2    4   -0.001141    0.001053
   -5    3   -1    3    4   -0.001439    0.001112
   -5    3   -1    4    4   -0.000563    0.000401
   -5    3   -1    5    4   -0.001176    0.002932
   -5    3   -1    6    4    0.002005   -0.000422
   -5    3   -1    1    5    0.000469    0.006283
   -5    3   -1    2    5   -0.003270   -0.000631
   -5    3   -1    3    5   -0.001073    0.000309
   -5    3   -1    4    5   -0.000372    0.004532
   -5    3   -1    5    5   -0.004395   -0.000444
   -5    3   -1    6    5    0.000198    0.000729
   -5    3   -1    1    6   -0.001280   -0.002824
   -5    3   -1    2    6   -0.001401   -0.001890
   -5    3   -1    3    6   -0.000786    0.000290
   -5    3   -1    4    6    0.001105    0.000171
   -5    3   -1    5    6   -0.000248   -0.000709
   -5    3   -1    6    6   -0.000301   -0.000043
   -5    3    0    1    1   -0.000885    0.001094
   -5    3    0    2    1   -0.000762    0.001410
   -5    3    0    3    1    0.000372   -0.000482
   -5    3    0    4    1   -0.000241    0.004313
   -5    3    0    5    1   -0.002649    0.004979
   -5    3    0    6    1   -0.000200    0.002478
   -5    3    0    1    2    0.004108   -0.002718
   -5    3    0    2    2    0.004587   -0.001814
   -5    3    0    3    2    0.001972   -0.000578
   -5    3    0    4    2   -0.000686   -0.001522
   -5    3    0    5    2   -0.000089   -0.000032
   -5    3    0    6    2   -0.000129    0.001074
   -5    3    0    1    3   -0.007250   -0.003000
   -5    3    0    2    3    0.000960    0.000060
   -5    3    0    3    3    0.004001    0.000301
   -5    3    0    4    3    0.001395    0.000521
   -5    3    0    5    3    0.002481    0.000079
   -5    3    0    6    3   -0.001334    0.000394
   -5    3    0    1    4   -0.005084    0.001939
   -5    3    0    2    4   -0.001488   -0.000142
   -5    3    0    3    4    0.001700   -0.000481
   -5    3    0    4    4    0.001135   -0.000764
   -5    3    0    5    4    0.002713   -0.002670
   -5    3    0    6    4   -0.001690    0.000170
   -5    3    0    1    5   -0.006986   -0.007431
   -5    3    0    2    5    0.002513    0.000419
   -5    3    0    3    5    0.002180    0.000059
   -5    3    0    4    5    0.000031   -0.003805
   -5    3    0    5    5    0.005450    0.001080
   -5    3    0    6    5   -0.001426   -0.000500
   -5    3    0    1    6    0.000304    0.003136
   -5    3    0    2    6    0.003485    0.000879
   -5    3    0    3    6    0.000804   -0.000428
   -5    3    0    4    6    0.000134   -0.000033
   -5    3    0    5    6    0.002399   -0.000835
   -5    3    0    6    6   -0.002179    0.000290
   -5    3    1    1    1   -0.007694   -0.000416
   -5    3    1    2    1    0.011376   -0.003047
   -5    3    1    3    1   -0.001600    0.000169
   -5    3    1    4    1   -0.002140   -0.005381
   -5    3    1    5    1    0.008122   -0.006338
   -5    3    1    6    1    0.004005   -0.002263
   -5    3    1    1    2    0.011070    0.001436
   -5    3    1    2    2    0.011260    0.000756
   -5    3    1    3    2   -0.001121    0.000229
   -5    3    1    4    2   -0.000311   -0.000107
   -5    3    1    5    2    0.002637    0.000151
   -5    3    1    6    2    0.008179   -0.001838
   -5    3    1    1    3    0.001154    0.000700
   -5    3    1    2    3   -0.000837    0.000682
   -5    3    1    3    3    0.000353    0.000600
   -5    3    1    4    3    0.004087   -0.000277
   -5    3    1    5    3   -0.000726    0.000506
   -5    3    1    6    3    0.000695   -0.001158
   -5    3    1    1    4   -0.007160   -0.003127
   -5    3    1    2    4   -0.002835    0.001306
   -5    3    1    3    4    0.002556    0.000957
   -5    3    1    4    4    0.004400    0.000599
   -5    3    1    5    4   -0.002216    0.002780
   -5    3    1    6    4   -0.001515    0.000331
   -5    3    1    1    5    0.009701    0.006918
   -5    3    1    2    5    0.000918   -0.000296
   -5    3    1    3    5   -0.001153   -0.000052
   -5    3    1    4    5    0.002353    0.002029
   -5    3    1    5    5   -0.005234   -0.001764
   -5    3    1    6    5    0.001546    0.000383
   -5    3    1    1    6    0.000779   -0.000316
   -5    3    1    2    6    0.005016    0.001437
   -5    3    1    3    6    0.000700   -0.000655
   -5    3    1    4    6    0.000053   -0.000637
   -5    3    1    5    6    0.000421    0.000643
   -5    3    1    6    6   -0.001979   -0.000000
   -5    3    2    1    1    0.006972   -0.002529
   -5    3    2    2    1    0.005524    0.004566
   -5    3    2    3    1    0.001769   -0.000860
   -5    3    2    4    1   -0.001627    0.002148
   -5    3    2    5    1   -0.002908    0.007695
   -5    3    2    6    1    0.006009   -0.001097
   -5    3    2    1    2    0.000505   -0.001273
   -5    3    2    2    2    0.001749    0.001538
   -5    3    2    3    2    0.002110   -0.000664
   -5    3    2    4    2   -0.002764    0.000385
   -5    3    2    5    2    0.000053    0.001335
   -5    3    2    6    2    0.003392   -0.000554
   -5    3    2    1    3   -0.003215    0.001283
   -5    3    2    2    3   -0.001594   -0.001203
   -5    3    2    3    3    0.003666   -0.000525
   -5    3    2    4    3    0.001448    0.000549
   -5    3    2    5    3   -0.000862   -0.001311
   -5    3    2    6    3   -0.001015    0.000861
   -5    3    2    1    4   -0.000181    0.005574
   -5    3    2    2    4    0.000426   -0.002165
   -5    3    2    3    4    0.001559   -0.001488
   -5    3    2    4    4    0.001098   -0.000698
   -5    3    2    5    4    0.000583   -0.004218
   -5    3    2    6    4   -0.000628    0.000081
   -5    3    2    1    5   -0.001925   -0.005266
   -5    3    2    2    5   -0.000570    0.000325
   -5    3    2    3    5    0.000376    0.000065
   -5    3    2    4    5   -0.003142   -0.001160
   -5    3    2    5    5    0.002290    0.002472
   -5    3    2    6    5    0.000311    0.001305
   -5    3    2    1    6    0.000250   -0.000186
   -5    3    2    2    6    0.001249   -0.001785
   -5    3    2    3    6    0.001107    0.001263
   -5    3    2    4    6    0.000487    0.000403
   -5    3    2    5    6   -0.000406   -0.000963
   -5    3    2    6    6   -0.003905   -0.000194
   -5    3    3    1    1   -0.005080    0.001877
   -5    3    3    2    1   -0.003419   -0.002150
   -5    3    3    3    1   -0.002269    0.000289
   -5    3    3    4    1   -0.005331   -0.000849
   -5    3    3    5    1    0.000419   -0.004866
   -5    3    3    6    1   -0.001901    0.002501
   -5    3    3    1    2   -0.005302    0.001164
   -5    3    3    2    2   -0.004900    0.000326
   -5    3    3    3    2    0.001414   -0.000154
   -5    3    3    4    2   -0.000083    0.000668
   -5    3    3    5    2   -0.001363   -0.000802
   -5    3    3    6    2   -0.000268    0.001017
   -5    3    3    1    3    0.002474    0.000589
   -5    3    3    2    3    0.001123    0.000375
   -5    3    3    3    3   -0.000184   -0.000341
   -5    3    3    4    3   -0.000286   -0.001118
   -5    3    3    5    3   -0.000860    0.000029
   -5    3    3    6    3   -0.000539    0.001003
   -5    3    3    1    4    0.001194   -0.004786
   -5    3    3    2    4    0.000183    0.002330
   -5    3    3    3    4    0.000588    0.001447
   -5    3    3    4    4    0.001470    0.000522
   -5    3    3    5    4   -0.000434    0.004938
   -5    3    3    6    4   -0.000622    0.000123
   -5    3    3    1    5    0.002513    0.004818
   -5    3    3    2    5   -0.000926   -0.000705
   -5    3    3    3    5    0.000621    0.000073
   -5    3    3    4    5    0.001200    0.002296
   -5    3    3    5    5   -0.001432   -0.002503
   -5    3    3    6    5    0.000242   -0.001121
   -5    3    3    1    6    0.002372    0.000291
   -5    3    3    2    6    0.000253   -0.000924
   -5    3    3    3    6   -0.000439   -0.000703
   -5    3    3    4    6   -0.001085   -0.000123
   -5    3    3    5    6   -0.000416    0.000138
   -5    3    3    6    6    0.000083    0.000119
   -4   -4    4    1    1    0.013245    0.000000
   -4   -4    4    2    1    0.006289    0.000508
   -4   -4    4    3    1    0.000852    0.000534
   -4   -4    4    4    1   -0.000216   -0.000255
   -4   -4    4    5    1   -0.004854    0.004127
   -4   -4    4    6    1    0.001625    0.000365
   -4   -4    4    1    2    0.006289   -0.000508
   -4   -4    4    2    2    0.006958    0.000000
   -4   -4    4    3    2    0.000300    0.000036
   -4   -4    4    4    2    0.000502   -0.000663
   -4   -4    4    5    2    0.004562   -0.000299
   -4   -4    4    6    2   -0.000300   -0.000694
   -4   -4    4    1    3    0.000852   -0.000534
   -4   -4    4    2    3    0.000300   -0.000036
   -4   -4    4    3    3   -0.000163    0.000000
   -4   -4    4    4    3   -0.000289    0.001274
   -4   -4    4    5    3    0.000867    0.000010
   -4   -4    4    6    3    0.000167   -0.000323
   -4   -4    4    1    4   -0.000216    0.000255
   -4   -4    4    2    4    0.000502    0.000663
   -4   -4    4    3    4   -0.000289   -0.001274
   -4   -4    4    4    4   -0.001118    0.000000
   -4   -4    4    5    4    0.000241    0.000642
   -4   -4    4    6    4   -0.000182   -0.000147
   -4   -4    4    1    5   -0.004854   -0.004127
   -4   -4    4    2    5    0.004562    0.000299
   -4   -4    4    3    5    0.000867   -0.000010
   -4   -4    4    4    5    0.000241   -0.000642
   -4   -4    4    5    5    0.006282    0.000000
   -4   -4    4    6    5   -0.001069    0.000370
   -4   -4    4    1    6    0.001625   -0.000365
   -4   -4    4    2    6   -0.000300    0.000694
   -4   -4    4    3    6    0.000167    0.000323
   -4   -4    4    4    6   -0.000182    0.000147
   -4   -4    4    5    6   -0.001069   -0.000370
   -4   -4    4    6    6   -0.000087    0.000000
   -4   -3    3    1    1   -0.009901   -0.001275
   -4   -3    3    2    1   -0.002062   -0.000145
   -4   -3    3    3    1    0.001254   -0.001216
   -4   -3    3    4    1   -0.000508    0.001384
   -4   -3    3    5    1    0.003496    0.000490
   -4   -3    3    6    1    0.000390   -0.000159
   -4   -3    3    1    2   -0.008831    0.001001
   -4   -3    3    2    2    0.000692    0.001895
   -4   -3    3    3    2    0.000169   -0.000141
   -4   -3    3    4    2    0.000971   -0.001175
   -4   -3    3    5    2    0.001955    0.000864
   -4   -3    3    6    2   -0.001130   -0.000825
   -4   -3    3    1    3   -0.002615   -0.000679
   -4   -3    3    2    3    0.000264   -0.000489
   -4   -3    3    3    3    0.000257   -0.000539
   -4   -3    3    4    3    0.000012   -0.000023
   -4   -3    3    5    3    0.001996   -0.000752
   -4   -3    3    6    3   -0.000485    0.000129
   -4   -3    3    1    4    0.000738    0.002786
   -4   -3    3    2    4   -0.000241   -0.000950
   -4   -3    3    3    4    0.000235   -0.001011
   -4   -3    3    4    4   -0.000099   -0.000201
   -4   -3    3    5    4   -0.000066   -0.003596
   -4   -3    3    6    4    0.000538   -0.000221
   -4   -3    3    1    5   -0.001854   -0.000151
   -4   -3    3    2    5   -0.000017    0.000898
   -4   -3    3    3    5   -0.001206   -0.000367
   -4   -3    3    4    5    0.001031   -0.003256
   -4   -3    3    5    5    0.001005    0.000235
   -4   -3    3    6    5   -0.000969    0.000137
   -4   -3    3    1    6   -0.000514   -0.001052
   -4   -3    3    2    6   -0.000849   -0.001907
   -4   -3    3    3    6   -0.000228    0.000731
   -4   -3    3    4    6    0.001267    0.000099
   -4   -3    3    5    6   -0.000006   -0.001708
   -4   -3    3    6    6   -0.000490   -0.000390
   -4   -3    4    1    1    0.001287   -0.001835
   -4   -3    4    2    1   -0.001517   -0.000083
   -4   -3    4    3    1   -0.002744    0.001319
   -4   -3    4    4    1    0.003177   -0.001634
   -4   -3    4    5    1   -0.000555   -0.000914
   -4   -3    4    6    1   -0.003088   -0.000057
   -4   -3    4    1    2   -0.004014   -0.000194
   -4   -3    4    2    2   -0.005805    0.000007
   -4   -3    4    3    2    0.000104   -0.000052
   -4   -3    4    4    2   -0.000583    0.002515
   -4   -3    4    5    2   -0.004532    0.000431
   -4   -3    4    6    2   -0.000403    0.000892
   -4   -3    4    1    3    0.000181    0.001870
   -4   -3    4    2    3   -0.000292    0.000663
   -4   -3    4    3    3    0.000277    0.000373
   -4   -3    4    4    3   -0.000225    0.000139
   -4   -3    4    5    3   -0.002075    0.001220
   -4   -3    4    6    3    0.000719   -0.000031
   -4   -3    4    1    4   -0.000748   -0.002847
   -4   -3    4    2    4   -0.001171    0.000880
   -4   -3    4    3    4   -0.000286    0.001270
   -4   -3    4    4    4   -0.000088    0.000405
   -4   -3    4    5    4   -0.000751    0.003821
   -4   -3    4    6    4    0.000379    0.000153
   -4   -3    4    1    5   -0.001961    0.000164
   -4   -3    4    2    5   -0.004028   -0.000013
   -4   -3    4    3    5    0.001639   -0.000199
   -4   -3    4    4    5   -0.001579    0.004825
   -4   -3    4    5    5   -0.003667    0.001208
   -4   -3    4    6    5    0.001169   -0.000095
   -4   -3    4    1    6    0.001084    0.000889
   -4   -3    4    2    6    0.000841   -0.001329
   -4   -3    4    3    6    0.000898   -0.000912
   -4   -3    4    4    6    0.000071   -0.000033
   -4   -3    4    5    6   -0.000240   -0.000550
   -4   -3    4    6    6   -0.000602   -0.000026
   -4   -2    2    1    1    0.009008    0.000347
   -4   -2    2    2    1    0.002539   -0.001202
   -4   -2    2    3    1   -0.003628   -0.002074
   -4   -2    2    4    1   -0.001607    0.000287
   -4   -2    2    5    1   -0.000968   -0.006199
   -4   -2    2    6    1    0.000543    0.002880
   -4   -2    2    1    2    0.002654    0.001528
   -4   -2    2    2    2   -0.004407   -0.000324
   -4   -2    2    3    2    0.001247   -0.000735
   -4   -2    2    4    2    0.000821   -0.000265
   -4   -2    2    5    2   -0.003141   -0.000187
   -4   -2    2    6    2    0.000236    0.001246
   -4   -2    2    1    3    0.000047    0.001206
   -4   -2    2    2    3   -0.000333    0.000537
   -4   -2    2    3    3   -0.000675   -0.000123
   -4   -2    2    4    3    0.000603   -0.000795
   -4   -2    2    5    3   -0.000266   -0.000472
   -4   -2    2    6    3   -0.000088   -0.000083
   -4   -2    2    1    4   -0.001226    0.002756
   -4   -2    2    2    4    0.000477   -0.002554
   -4   -2    2    3    4    0.000230   -0.000251
   -4   -2    2    4    4    0.001107   -0.000486
   -4   -2    2    5    4    0.001254   -0.004198
   -4   -2    2    6    4   -0.001180    0.000207
   -4   -2    2    1    5    0.002370    0.004927
   -4   -2    2    2    5   -0.003284   -0.001085
   -4   -2    2    3    5   -0.000282   -0.000375
   -4   -2    2    4    5    0.000655   -0.002023
   -4   -2    2    5    5   -0.004050    0.000508
   -4   -2    2    6    5   -0.000047    0.000993
   -4   -2    2    1    6    0.000755    0.000459
   -4   -2    2    2    6    0.000331   -0.001746
   -4   -2    2    3    6   -0.000444    0.000061
   -4   -2    2    4    6   -0.002431   -0.000275
   -4   -2    2    5    6   -0.000832   -0.000423
   -4   -2    2    6    6    0.001444    0.000157
   -4   -2    3    1    1    0.003677    0.000431
   -4   -2    3    2    1    0.000694    0.000867
   -4   -2    3    3    1    0.001780    0.000870
   -4   -2    3    4    1    0.000244    0.000209
   -4   -2    3    5    1   -0.001454    0.005520
   -4   -2    3    6    1    0.001997    0.000477
   -4   -2    3    1    2    0.005642   -0.002540
   -4   -2    3    2    2   -0.000967   -0.000793
   -4   -2    3    3    2   -0.000443    0.000295
   -4   -2    3    4    2   -0.002218    0.001743
   -4   -2    3    5    2   -0.000495   -0.000191
   -4   -2    3    6    2    0.001422    0.000597
   -4   -2    3    1    3   -0.000197   -0.000617
   -4   -2    3    2    3   -0.000503    0.000572
   -4   -2    3    3    3    0.000557    0.000086
   -4   -2    3    4    3   -0.000692    0.000575
   -4   -2    3    5    3   -0.000050    0.001107
   -4   -2    3    6    3    0.000651    0.000106
   -4   -2    3    1    4    0.002307   -0.002916
   -4   -2    3    2    4   -0.000366    0.001396
   -4   -2    3    3    4   -0.000546   -0.000255
   -4   -2    3    4    4   -0.000438    0.000341
   -4   -2    3    5    4   -0.002140    0.004380
   -4   -2    3    6    4   -0.000302   -0.000014
   -4   -2    3    1    5   -0.000944   -0.004905
   -4   -2    3    2    5    0.000588    0.000172
   -4   -2    3    3    5   -0.000663    0.000055
   -4   -2    3    4    5   -0.001617    0.003294
   -4   -2    3    5    5    0.002328   -0.000609
   -4   -2    3    6    5   -0.000015   -0.000136
   -4   -2    3    1    6   -0.000878    0.001836
   -4   -2    3    2    6   -0.001563    0.001250
   -4   -2    3    3    6   -0.001152   -0.000848
   -4   -2    3    4    6   -0.000988    0.000092
   -4   -2    3    5    6    0.000389   -0.000135
   -4   -2    3    6    6    0.000939    0.000534
   -4   -2    4    1    1   -0.005093   -0.001884
   -4   -2    4    2    1    0.000506   -0.000932
   -4   -2    4    3    1    0.000654   -0.000741
   -4   -2    4    4    1   -0.002928    0.001476
   -4   -2    4    5    1    0.004261   -0.005175
   -4   -2    4    6    1    0.000477   -0.000656
   -4   -2    4    1    2    0.002449    0.001766
   -4   -2    4    2    2    0.006242    0.000019
   -4   -2    4    3    2   -0.000714    0.000366
   -4   -2    4    4    2    0.000722   -0.003042
   -4   -2    4    5    2    0.004319    0.000183
   -4   -2    4    6    2    0.000751   -0.001733
   -4   -2    4    1    3    0.000991   -0.001523
   -4   -2    4    2    3   -0.000807   -0.000812
   -4   -2    4    3    3   -0.000581    0.000622
   -4   -2    4    4    3    0.001303   -0.000894
   -4   -2    4    5    3    0.000689   -0.001237
   -4   -2    4    6    3   -0.000980   -0.000442
   -4   -2    4    1    4   -0.000518    0.002343
   -4   -2    4    2    4    0.001151   -0.001168
   -4   -2    4    3    4    0.000804    0.000081
   -4   -2    4    4    4    0.000919   -0.000480
   -4   -2    4    5    4    0.002388   -0.004032
   -4   -2    4    6    4    0.000420   -0.000032
   -4   -2    4    1    5    0.003604    0.004046
   -4   -2    4    2    5    0.004285    0.000251
   -4   -2    4    3    5   -0.000562    0.001102
   -4   -2    4    4    5    0.002218   -0.004740
   -4   -2    4    5    5    0.000371    0.001639
   -4   -2    4    6    5    0.000146   -0.000937
   -4   -2    4    1    6   -0.001625   -0.001443
   -4   -2    4    2    6   -0.000371    0.001987
   -4   -2    4    3    6   -0.002600    0.000604
   -4   -2    4    4    6   -0.000048   -0.000078
   -4   -2    4    5    6   -0.000085    0.002148
   -4   -2    4    6    6    0.000547    0.000100
   -4   -1    1    1    1   -0.003883    0.000981
   -4   -1    1    2    1   -0.004561   -0.001438
   -4   -1    1    3    1    0.000338   -0.000123
   -4   -1    1    4    1    0.000244   -0.001623
   -4   -1    1    5    1   -0.006535   -0.004968
   -4   -1    1    6    1    0.002216    0.004494
   -4   -1    1    1    2   -0.001022    0.002582
   -4   -1    1    2    2   -0.001880   -0.002987
   -4   -1    1    3    2    0.001549   -0.000234
   -4   -1    1    4    2    0.000600   -0.000340
   -4   -1    1    5    2    0.001521   -0.001000
   -4   -1    1    6    2   -0.000185    0.001270
   -4   -1    1    1    3   -0.002612   -0.000332
   -4   -1    1    2    3   -0.000344    0.000406
   -4   -1    1    3    3   -0.001799    0.001209
   -4   -1    1    4    3   -0.000316    0.000141
   -4   -1    1    5    3   -0.000294    0.001099
   -4   -1    1    6    3    0.000476   -0.000794
   -4   -1    1    1    4   -0.002201    0.001768
   -4   -1    1    2    4    0.002526   -0.000908
   -4   -1    1    3    4    0.000363    0.000080
   -4   -1    1    4    4    0.000358   -0.000451
   -4   -1    1    5    4    0.002859   -0.001754
   -4   -1    1    6    4   -0.000625    0.000021
   -4   -1    1    1    5    0.001615    0.005615
   -4   -1    1    2    5    0.004944   -0.001390
   -4   -1    1    3    5    0.005026   -0.000157
   -4   -1    1    4    5    0.000896   -0.000505
   -4   -1    1    5    5    0.005483    0.000903
   -4   -1    1    6    5   -0.000461   -0.000470
   -4   -1    1    1    6    0.001469    0.000455
   -4   -1    1    2    6   -0.002240    0.002422
   -4   -1    1    3    6   -0.000170    0.000029
   -4   -1    1    4    6    0.000598    0.000292
   -4   -1    1    5    6   -0.002555    0.002372
   -4   -1    1    6    6   -0.000367    0.000551
   -4   -1    2    1    1   -0.005683    0.000370
   -4   -1    2    2    1    0.003125    0.001327
   -4   -1    2    3    1    0.009662    0.000890
   -4   -1    2    4    1    0.003289    0.001439
   -4   -1    2    5    1    0.005678    0.004652
   -4   -1    2    6    1   -0.002109   -0.001147
   -4   -1    2    1    2   -0.001007   -0.002789
   -4   -1    2    2    2    0.005837    0.000909
   -4   -1    2    3    2    0.000437    0.000705
   -4   -1    2    4    2    0.001907   -0.000122
   -4   -1    2    5    2    0.002358    0.000646
   -4   -1    2    6    2   -0.002098   -0.001862
   -4   -1    2    1    3   -0.000495   -0.001284
   -4   -1    2    2    3    0.001096   -0.000715
   -4   -1    2    3    3    0.000460   -0.000136
   -4   -1    2    4    3    0.000077    0.000269
   -4   -1    2    5    3    0.001618   -0.000956
   -4   -1    2    6    3   -0.001094    0.000186
   -4   -1    2    1    4    0.000587   -0.000177
   -4   -1    2    2    4   -0.001300    0.001851
   -4   -1    2    3    4   -0.000630   -0.000775
   -4   -1    2    4    4   -0.001086    0.000022
   -4   -1    2    5    4   -0.002538    0.001958
   -4   -1    2    6    4   -0.000202    0.000144
   -4   -1    2    1    5    0.000526   -0.005532
   -4   -1    2    2    5    0.002902    0.001678
   -4   -1    2    3    5   -0.002652    0.000103
   -4   -1    2    4    5   -0.000677    0.000139
   -4   -1    2    5    5   -0.001328   -0.000868
   -4   -1    2    6    5   -0.001038   -0.001344
   -4   -1    2    1    6    0.002588   -0.000613
   -4   -1    2    2    6    0.004463    0.001577
   -4   -1    2    3    6    0.001902    0.000578
   -4   -1    2    4    6    0.001271    0.000163
   -4   -1    2    5    6    0.002014   -0.000822
   -4   -1    2    6    6   -0.000284   -0.000343
   -4   -1    3    1    1   -0.000478   -0.002591
   -4   -1    3    2    1    0.001186   -0.001276
   -4   -1    3    3    1    0.000598    0.000426
   -4   -1    3    4    1    0.003551   -0.000515
   -4   -1    3    5    1   -0.002221   -0.004724
   -4   -1    3    6    1   -0.005086   -0.002175
   -4   -1    3    1    2   -0.004415    0.003775
   -4   -1    3    2    2   -0.001907    0.000371
   -4   -1    3    3    2    0.003068   -0.000475
   -4   -1    3    4    2    0.003507   -0.001170
   -4   -1    3    5    2   -0.001259    0.000092
   -4   -1    3    6    2   -0.000797   -0.000983
   -4   -1    3    1    3    0.001186    0.001631
   -4   -1    3    2    3    0.000317   -0.000405
   -4   -1    3    3    3   -0.002034    0.000149
   -4   -1    3    4    3    0.000090   -0.000160
   -4   -1    3    5    3   -0.002376    0.000674
   -4   -1    3    6    3    0.000965    0.000316
   -4   -1    3    1    4   -0.004532    0.001001
   -4   -1    3    2    4    0.001500   -0.000809
   -4   -1    3    3    4   -0.000489    0.001196
   -4   -1    3    4    4    0.000163    0.000058
   -4   -1    3    5    4    0.002819   -0.001307
   -4   -1    3    6    4   -0.000496    0.000228
   -4   -1    3    1    5   -0.003789    0.004484
   -4   -1    3    2    5   -0.002392   -0.000419
   -4   -1    3    3    5    0.002403   -0.000118
   -4   -1    3    4    5    0.001214   -0.000401
   -4   -1    3    5    5    0.000030    0.002779
   -4   -1    3    6    5    0.002117   -0.000276
   -4   -1    3    1    6    0.004734   -0.001522
   -4   -1    3    2    6    0.001805   -0.000985
   -4   -1    3    3    6    0.000838    0.000253
   -4   -1    3    4    6   -0.001518    0.000208
   -4   -1    3    5    6   -0.001409    0.001067
   -4   -1    3    6    6    0.002086   -0.000595
   -4   -1    4    1    1    0.001945    0.006073
   -4   -1    4    2    1   -0.002087    0.001760
   -4   -1    4    3    1    0.006196   -0.002061
   -4   -1    4    4    1    0.007027   -0.000100
   -4   -1    4    5    1   -0.001145    0.006013
   -4   -1    4    6    1    0.004712    0.001419
   -4   -1    4    1    2   -0.003064   -0.002152
   -4   -1    4    2    2   -0.006435    0.000072
   -4   -1    4    3    2    0.002679   -0.000012
   -4   -1    4    4    2    0.003082    0.002054
   -4   -1    4    5    2   -0.000252   -0.001041
   -4   -1    4    6    2   -0.000938    0.002891
   -4   -1    4    1    3   -0.004862    0.000249
   -4   -1    4    2    3   -0.000696   -0.000183
   -4   -1    4    3    3    0.002604   -0.000333
   -4   -1    4    4    3   -0.000925    0.000255
   -4   -1    4    5    3    0.001421   -0.001584
   -4   -1    4    6    3   -0.002711    0.000264
   -4   -1    4    1    4    0.004756   -0.000382
   -4   -1    4    2    4   -0.000933    0.000797
   -4   -1    4    3    4   -0.000042   -0.000649
   -4   -1    4    4    4   -0.002223   -0.000422
   -4   -1    4    5    4   -0.004339    0.000458
   -4   -1    4    6    4   -0.000814    0.000039
   -4   -1    4    1    5   -0.002053   -0.002435
   -4   -1    4    2    5   -0.002180   -0.000364
   -4   -1    4    3    5   -0.002555    0.000036
   -4   -1    4    4    5   -0.001981    0.000720
   -4   -1    4    5    5    0.000017   -0.005438
   -4   -1    4    6    5   -0.002312    0.002026
   -4   -1    4    1    6   -0.005443   -0.000665
   -4   -1    4    2    6   -0.000627   -0.002494
   -4   -1    4    3    6   -0.002339   -0.000553
   -4   -1    4    4    6    0.000466    0.000320
   -4   -1    4    5    6    0.003070   -0.001602
   -4   -1    4    6    6    0.002286   -0.000083
   -4    0    0    1    1   -0.026402    0.000000
   -4    0    0    2    1   -0.002086   -0.004188
   -4    0    0    3    1    0.003595    0.000684
   -4    0    0    4    1   -0.001506   -0.000715
   -4    0    0    5    1   -0.007522   -0.002426
   -4    0    0    6    1    0.002683    0.002339
   -4    0    0    1    2   -0.002086    0.004188
   -4    0    0    2    2    0.012361    0.000000
   -4    0    0    3    2    0.003163    0.000550
   -4    0    0    4    2    0.000355    0.000035
   -4    0    0    5    2    0.007273   -0.000129
   -4    0    0    6    2   -0.001141   -0.003013
   -4    0    0    1    3    0.003595   -0.000684
   -4    0    0    2    3    0.003163   -0.000550
   -4    0    0    3    3   -0.001505    0.000000
   -4    0    0    4    3   -0.000250    0.000356
   -4    0    0    5    3    0.003557    0.000672
   -4    0    0    6    3   -0.000395   -0.000757
   -4    0    0    1    4   -0.001506    0.000715
   -4    0    0    2    4    0.000355   -0.000035
   -4    0    0    3    4   -0.000250   -0.000356
   -4    0    0    4    4    0.001727    0.000000
   -4    0    0    5    4    0.002044   -0.000099
   -4    0    0    6    4   -0.001624   -0.000470
   -4    0    0    1    5   -0.007522    0.002426
   -4    0    0    2    5    0.007273    0.000129
   -4    0    0    3    5    0.003557   -0.000672
   -4    0    0    4    5    0.002044    0.000099
   -4    0    0    5    5    0.014024    0.000000
   -4    0    0    6    5   -0.001871   -0.003174
   -4    0    0    1    6    0.002683   -0.002339
   -4    0    0    2    6   -0.001141    0.003013
   -4    0    0    3    6   -0.000395    0.000757
   -4    0    0    4    6   -0.001624    0.000470
   -4    0    0    5    6   -0.001871    0.003174
   -4    0    0    6    6    0.003258    0.000000
   -4    0    1    1    1    0.002694   -0.002163
   -4    0    1    2    1    0.004457    0.002692
   -4    0    1    3    1    0.005752    0.001134
   -4    0    1    4    1   -0.002335    0.000780
   -4    0    1    5    1    0.009258    0.002201
   -4    0    1    6    1    0.001693   -0.002900
   -4    0    1    1    2    0.000520   -0.002286
   -4    0    1    2    2   -0.000572    0.003269
   -4    0    1    3    2   -0.004113    0.000041
   -4    0    1    4    2   -0.002585    0.000165
   -4    0    1    5    2   -0.000398    0.001340
   -4    0    1    6    2    0.001575   -0.001896
   -4    0    1    1    3   -0.003692    0.000885
   -4    0    1    2    3    0.000330   -0.000278
   -4    0    1    3    3    0.001024   -0.000465
   -4    0    1    4    3    0.000590   -0.000648
   -4    0    1    5    3   -0.001719   -0.001352
   -4    0    1    6    3   -0.000764    0.000141
   -4    0    1    1    4    0.002797    0.000688
   -4    0    1    2    4   -0.001262    0.000427
   -4    0    1    3    4    0.001111   -0.000601
   -4    0    1    4    4   -0.000523   -0.000420
   -4    0    1    5    4   -0.002402   -0.000487
   -4    0    1    6    4    0.000364    0.000143
   -4    0    1    1    5    0.001859   -0.002413
   -4    0    1    2    5   -0.004785    0.002401
   -4    0    1    3    5   -0.003633    0.000474
   -4    0    1    4    5    0.000433   -0.000290
   -4    0    1    5    5   -0.008879    0.000658
   -4    0    1    6    5   -0.000928   -0.000303
   -4    0    1    1    6   -0.004264   -0.001162
   -4    0    1    2    6   -0.000166   -0.003028
   -4    0    1    3    6   -0.000355    0.000294
   -4    0    1    4    6    0.001751   -0.000048
   -4    0    1    5    6    0.004000   -0.002334
   -4    0    1    6    6   -0.000544   -0.000924
   -4    0    2    1    1    0.013419    0.001673
   -4    0    2    2    1   -0.013286   -0.001766
   -4    0    2    3    1   -0.019158    0.000260
   -4    0    2    4    1   -0.003792   -0.000270
   -4    0    2    5    1   -0.008932   -0.002332
   -4    0    2    6    1    0.003501   -0.002520
   -4    0    2    1    2    0.003440    0.000939
   -4    0    2    2    2   -0.013211   -0.001209
   -4    0    2    3    2   -0.009625   -0.000351
   -4    0    2    4    2   -0.007131    0.000120
   -4    0    2    5    2   -0.006391   -0.000983
   -4    0    2    6    2    0.002831    0.002505
   -4    0    2    1    3    0.004525    0.001505
   -4    0    2    2    3   -0.000223    0.000434
   -4    0    2    3    3    0.001481   -0.000363
   -4    0    2    4    3   -0.001362    0.001019
   -4    0    2    5    3    0.000488    0.001521
   -4    0    2    6    3    0.001540    0.000401
   -4    0    2    1    4   -0.001096   -0.001335
   -4    0    2    2    4   -0.001129   -0.000095
   -4    0    2    3    4   -0.001188    0.001208
   -4    0    2    4    4   -0.000171    0.000690
   -4    0    2    5    4    0.000364    0.001290
   -4    0    2    6    4    0.002376   -0.000072
   -4    0    2    1    5   -0.000824    0.001006
   -4    0    2    2    5   -0.006271   -0.002421
   -4    0    2    3    5    0.001158   -0.000782
   -4    0    2    4    5   -0.002650    0.000291
   -4    0    2    5    5   -0.000174   -0.000953
   -4    0    2    6    5   -0.000239    0.001830
   -4    0    2    1    6   -0.001441   -0.000233
   -4    0    2    2    6   -0.002116   -0.001405
   -4    0    2    3    6    0.003383   -0.000153
   -4    0    2    4    6    0.002118   -0.000036
   -4    0    2    5    6   -0.002446    0.000012
   -4    0    2    6    6   -0.006056   -0.000098
   -4    0    3    1    1   -0.007771   -0.001668
   -4    0    3    2    1   -0.012992    0.000716
   -4    0    3    3    1    0.000818   -0.000664
   -4    0    3    4    1   -0.005367   -0.000591
   -4    0    3    5    1   -0.000203    0.000100
   -4    0    3    6    1   -0.006447    0.005061
   -4    0    3    1    2   -0.001048   -0.002995
   -4    0    3    2    2    0.000898   -0.000897
   -4    0    3    3    2   -0.003746    0.001294
   -4    0    3    4    2   -0.002161    0.000031
   -4    0    3    5    2    0.002554    0.000163
   -4    0    3    6    2   -0.001427    0.001481
   -4    0    3    1    3   -0.002128   -0.001081
   -4    0    3    2    3    0.000270    0.000802
   -4    0    3    3    3   -0.004930    0.000383
   -4    0    3    4    3   -0.001404   -0.001227
   -4    0    3    5    3    0.000745   -0.001679
   -4    0    3    6    3    0.001688   -0.001345
   -4    0    3    1    4   -0.002420    0.000160
   -4    0    3    2    4    0.002260   -0.000043
   -4    0    3    3    4    0.002110   -0.000429
   -4    0    3    4    4    0.001795    0.000196
   -4    0    3    5    4    0.003371   -0.000453
   -4    0    3    6    4   -0.000649   -0.000806
   -4    0    3    1    5    0.003889   -0.000531
   -4    0    3    2    5    0.007739    0.001257
   -4    0    3    3    5   -0.000655    0.001401
   -4    0    3    4    5    0.003952   -0.000345
   -4    0    3    5    5    0.004040    0.000821
   -4    0    3    6    5    0.000643    0.000668
   -4    0    3    1    6    0.005149    0.003629
   -4    0    3    2    6    0.001530    0.000175
   -4    0    3    3    6    0.002112   -0.001235
   -4    0    3    4    6    0.001609   -0.000131
   -4    0    3    5    6   -0.001122   -0.001475
   -4    0    3    6    6   -0.001180    0.001580
   -4    0    4    1    1    0.001128   -0.000000
   -4    0    4    2    1    0.003158   -0.003018
   -4    0    4    3    1   -0.001887    0.001269
   -4    0    4    4    1    0.011647    0.001301
   -4    0    4    5    1    0.000422    0.000156
   -4    0    4    6    1   -0.000660    0.000199
   -4    0    4    1    2    0.003158    0.003018
   -4    0    4    2    2    0.004014   -0.000000
   -4    0    4    3    2   -0.000525   -0.000456
   -4    0    4    4    2    0.001689    0.000128
   -4    0    4    5    2   -0.000499    0.000881
   -4    0    4    6    2    0.000272   -0.003006
   -4    0    4    1    3   -0.001887   -0.001269
   -4    0    4    2    3   -0.000525    0.000456
   -4    0    4    3    3    0.003998   -0.000000
   -4    0    4    4    3   -0.001053    0.000741
   -4    0    4    5    3   -0.001250    0.002493
   -4    0    4    6    3   -0.001655   -0.000172
   -4    0    4    1    4    0.011647   -0.001301
   -4    0    4    2    4    0.001689   -0.000128
   -4    0    4    3    4   -0.001053   -0.000741
   -4    0    4    4    4   -0.005481   -0.000000
   -4    0    4    5    4   -0.006122   -0.000024
   -4    0    4    6    4    0.000638    0.000525
   -4    0    4    1    5    0.000422   -0.000156
   -4    0    4    2    5   -0.000499   -0.000881
   -4    0    4    3    5   -0.001250   -0.002493
   -4    0    4    4    5   -0.006122    0.000024
   -4    0    4    5    5   -0.004034    0.000000
   -4    0    4    6    5    0.002187   -0.002404
   -4    0    4    1    6   -0.000660   -0.000199
   -4    0    4    2    6    0.000272    0.003006
   -4    0    4    3    6   -0.001655    0.000172
   -4    0    4    4    6    0.000638   -0.000525
   -4    0    4    5    6    0.002187    0.002404
   -4    0    4    6    6    0.004332    0.000000
   -4    1   -1    1    1   -0.003883   -0.000981
   -4    1   -1    2    1   -0.001022   -0.002582
   -4    1   -1    3    1   -0.002612    0.000332
   -4    1   -1    4    1   -0.002201   -0.001768
   -4    1   -1    5    1    0.001615   -0.005615
   -4    1   -1    6    1    0.001469   -0.000455
   -4    1   -1    1    2   -0.004561    0.001438
   -4    1   -1    2    2   -0.001880    0.002987
   -4    1   -1    3    2   -0.000344   -0.000406
   -4    1   -1    4    2    0.002526    0.000908
   -4    1   -1    5    2    0.004944    0.001390
   -4    1   -1    6    2   -0.002240   -0.002422
   -4    1   -1    1    3    0.000338    0.000123
   -4    1   -1    2    3    0.001549    0.000234
   -4    1   -1    3    3   -0.001799   -0.001209
   -4    1   -1    4    3    0.000363   -0.000080
   -4    1   -1    5    3    0.005026    0.000157
   -4    1   -1    6    3   -0.000170   -0.000029
   -4    1   -1    1    4    0.000244    0.001623
   -4    1   -1    2    4    0.000600    0.000340
   -4    1   -1    3    4   -0.000316   -0.000141
   -4    1   -1    4    4    0.000358    0.000451
   -4    1   -1    5    4    0.000896    0.000505
   -4    1   -1    6    4    0.000598   -0.000292
   -4    1   -1    1    5   -0.006535    0.004968
   -4    1   -1    2    5    0.001521    0.001000
   -4    1   -1    3    5   -0.000294   -0.001099
   -4    1   -1    4    5    0.002859    0.001754
   -4    1   -1    5    5    0.005483   -0.000903
   -4    1   -1    6    5   -0.002555   -0.002372
   -4    1   -1    1    6    0.002216   -0.004494
   -4    1   -1    2    6   -0.000185   -0.001270
   -4    1   -1    3    6    0.000476    0.000794
   -4    1   -1    4    6   -0.000625   -0.000021
   -4    1   -1    5    6   -0.000461    0.000470
   -4    1   -1    6    6   -0.000367   -0.000551
   -4    1    0    1    1    0.006938   -0.002030
   -4    1    0    2    1    0.001155    0.003121
   -4    1    0    3    1    0.004469    0.000071
   -4    1    0    4    1    0.004995    0.001044
   -4    1    0    5    1    0.003505    0.005041
   -4    1    0    6    1   -0.006113   -0.002541
   -4    1    0    1    2    0.003554   -0.004100
   -4    1    0    2    2   -0.007930   -0.000436
   -4    1    0    3    2    0.000146   -0.000823
   -4    1    0    4    2    0.000615    0.000573
   -4    1    0    5    2   -0.005954    0.000841
   -4    1    0    6    2   -0.001927    0.001674
   -4    1    0    1    3   -0.010456    0.001349
   -4    1    0    2    3   -0.002223    0.000653
   -4    1    0    3    3    0.001921    0.001055
   -4    1    0    4    3    0.000630   -0.000189
   -4    1    0    5    3   -0.003963   -0.000288
   -4    1    0    6    3    0.000032    0.000302
   -4    1    0    1    4   -0.001335    0.000387
   -4    1    0    2    4   -0.001782   -0.000555
   -4    1    0    3    4   -0.000900    0.000007
   -4    1    0    4    4   -0.000953   -0.000798
   -4    1    0    5    4   -0.000299   -0.001260
   -4    1    0    6    4    0.001155    0.000509
   -4    1    0    1    5    0.005065   -0.004462
   -4    1    0    2    5   -0.005514    0.000056
   -4    1    0    3    5   -0.000924    0.000545
   -4    1    0    4    5   -0.002341    0.000078
   -4    1    0    5    5   -0.005398    0.002586
   -4    1    0    6    5    0.002414    0.001817
   -4    1    0    1    6   -0.001097    0.002160
   -4    1    0    2    6    0.002208   -0.003446
   -4    1    0    3    6   -0.000546   -0.001049
   -4    1    0    4    6    0.001031    0.000711
   -4    1    0    5    6    0.001640   -0.002860
   -4    1    0    6    6   -0.001379   -0.000332
   -4    1    1    1    1    0.026617    0.005493
   -4    1    1    2    1    0.000763   -0.003814
   -4    1    1    3    1   -0.009538   -0.003981
   -4    1    1    4    1   -0.009162    0.001058
   -4    1    1    5    1   -0.007987   -0.004869
   -4    1    1    6    1    0.006552    0.002982
   -4    1    1    1    2    0.015804    0.003081
   -4    1    1    2    2    0.006044   -0.002696
   -4    1    1    3    2   -0.000894   -0.001167
   -4    1    1    4    2   -0.002873   -0.000677
   -4    1    1    5    2   -0.003735   -0.001073
   -4    1    1    6    2    0.005310    0.002973
   -4    1    1    1    3    0.003380   -0.002187
   -4    1    1    2    3   -0.000218    0.000557
   -4    1    1    3    3    0.005205    0.000249
   -4    1    1    4    3    0.001399   -0.000144
   -4    1    1    5    3    0.001792    0.000383
   -4    1    1    6    3   -0.001887   -0.000029
   -4    1    1    1    4    0.010744   -0.005072
   -4    1    1    2    4   -0.002358    0.001400
   -4    1    1    3    4   -0.000998    0.001289
   -4    1    1    4    4   -0.002018    0.000378
   -4    1    1    5    4   -0.003121    0.002491
   -4    1    1    6    4    0.001307    0.000042
   -4    1    1    1    5    0.006099    0.002696
   -4    1    1    2    5   -0.001679   -0.001805
   -4    1    1    3    5   -0.007412   -0.001051
   -4    1    1    4    5   -0.004226   -0.002376
   -4    1    1    5    5   -0.002926   -0.004271
   -4    1    1    6    5    0.003312    0.001200
   -4    1    1    1    6   -0.007795    0.000749
   -4    1    1    2    6    0.001044    0.002583
   -4    1    1    3    6   -0.000128   -0.000383
   -4    1    1    4    6    0.001115   -0.000725
   -4    1    1    5    6    0.001036    0.001443
   -4    1    1    6    6   -0.001027    0.000846
   -4    1    2    1    1    0.008653   -0.006952
   -4    1    2    2    1    0.004929    0.003624
   -4    1    2    3    1   -0.021010    0.000633
   -4    1    2    4    1   -0.017836   -0.004523
   -4    1    2    5    1    0.000542    0.005073
   -4    1    2    6    1    0.022235    0.000784
   -4    1    2    1    2    0.004200    0.000061
   -4    1    2    2    2    0.016825    0.000924
   -4    1    2    3    2    0.001944   -0.000504
   -4    1    2    4    2   -0.002900   -0.000851
   -4    1    2    5    2    0.008779    0.002290
   -4    1    2    6    2    0.008312   -0.002498
   -4    1    2    1    3    0.007517    0.000732
   -4    1    2    2    3   -0.000230   -0.000701
   -4    1    2    3    3   -0.002841   -0.000792
   -4    1    2    4    3    0.002519    0.000283
   -4    1    2    5    3   -0.001667    0.000296
   -4    1    2    6    3    0.002495   -0.000182
   -4    1    2    1    4   -0.008727    0.002896
   -4    1    2    2    4   -0.001640   -0.002251
   -4    1    2    3    4    0.000240   -0.001407
   -4    1    2    4    4    0.003929    0.000246
   -4    1    2    5    4    0.002872   -0.002587
   -4    1    2    6    4    0.000472   -0.000664
   -4    1    2    1    5   -0.008963   -0.001441
   -4    1    2    2    5    0.008539    0.001868
   -4    1    2    3    5    0.009655    0.001734
   -4    1    2    4    5    0.004821    0.002296
   -4    1    2    5    5    0.008626    0.006289
   -4    1    2    6    5   -0.002193   -0.000885
   -4    1    2    1    6   -0.006141    0.001855
   -4    1    2    2    6    0.000193    0.001621
   -4    1    2    3    6    0.002232    0.001122
   -4    1    2    4    6   -0.000906   -0.000982
   -4    1    2    5    6   -0.000271   -0.001122
   -4    1    2    6    6   -0.003475   -0.000188
   -4    1    3    1    1    0.000309    0.006470
   -4    1    3    2    1    0.006280   -0.001628
   -4    1    3    3    1    0.002836   -0.000699
   -4    1    3    4    1   -0.009068    0.001188
   -4    1    3    5    1    0.007436   -0.000999
   -4    1    3    6    1    0.001309   -0.002681
   -4    1    3    1    2   -0.000560    0.000184
   -4    1    3    2    2   -0.000568    0.001400
   -4    1    3    3    2    0.001488   -0.001152
   -4    1    3    4    2   -0.002957    0.000250
   -4    1    3    5    2   -0.001641   -0.001053
   -4    1    3    6    2   -0.000325   -0.002243
   -4    1    3    1    3   -0.003012   -0.001725
   -4    1    3    2    3   -0.001951   -0.000760
   -4    1    3    3    3   -0.000915   -0.000141
   -4    1    3    4    3   -0.002167   -0.000606
   -4    1    3    5    3    0.001472   -0.000536
   -4    1    3    6    3    0.002217    0.000510
   -4    1    3    1    4   -0.003338   -0.000363
   -4    1    3    2    4   -0.000550    0.001724
   -4    1    3    3    4    0.003354    0.000661
   -4    1    3    4    4    0.003304   -0.000481
   -4    1    3    5    4    0.000726    0.001143
   -4    1    3    6    4   -0.002577    0.001120
   -4    1    3    1    5    0.004582    0.005044
   -4    1    3    2    5   -0.003271   -0.001264
   -4    1    3    3    5   -0.000691   -0.002199
   -4    1    3    4    5    0.002883   -0.000912
   -4    1    3    5    5   -0.004576   -0.007161
   -4    1    3    6    5   -0.003275   -0.000498
   -4    1    3    1    6    0.001521   -0.001490
   -4    1    3    2    6   -0.000117   -0.000417
   -4    1    3    3    6    0.001485    0.000225
   -4    1    3    4    6    0.002194    0.001028
   -4    1    3    5    6    0.000196    0.001758
   -4    1    3    6    6   -0.004541   -0.000084
   -4    1    4    1    1    0.001945   -0.006073
   -4    1    4    2    1   -0.003064    0.002152
   -4    1    4    3    1   -0.004862   -0.000249
   -4    1    4    4    1    0.004756    0.000382
   -4    1    4    5    1   -0.002053    0.002435
   -4    1    4    6    1   -0.005443    0.000665
   -4    1    4    1    2   -0.002087   -0.001760
   -4    1    4    2    2   -0.006435   -0.000072
   -4    1    4    3    2   -0.000696    0.000183
   -4    1    4    4    2   -0.000933   -0.000797
   -4    1    4    5    2   -0.002180    0.000364
   -4    1    4    6    2   -0.000627    0.002494
   -4    1    4    1    3    0.006196    0.002061
   -4    1    4    2    3    0.002679    0.000012
   -4    1    4    3    3    0.002604    0.000333
   -4    1    4    4    3   -0.000042    0.000649
   -4    1    4    5    3   -0.002555   -0.000036
   -4    1    4    6    3   -0.002339    0.000553
   -4    1    4    1    4    0.007027    0.000100
   -4    1    4    2    4    0.003082   -0.002054
   -4    1    4    3    4   -0.000925   -0.000255
   -4    1    4    4    4   -0.002223    0.000422
   -4    1    4    5    4   -0.001981   -0.000720
   -4    1    4    6    4    0.000466   -0.000320
   -4    1    4    1    5   -0.001145   -0.006013
   -4    1    4    2    5   -0.000252    0.001041
   -4    1    4    3    5    0.001421    0.001584
   -4    1    4    4    5   -0.004339   -0.000458
   -4    1    4    5    5    0.000017    0.005438
   -4    1    4    6    5    0.003070    0.001602
   -4    1    4    1    6    0.004712   -0.001419
   -4    1    4    2    6   -0.000938   -0.002891
   -4    1    4    3    6   -0.002711   -0.000264
   -4    1    4    4    6   -0.000814   -0.000039
   -4    1    4    5    6   -0.002312   -0.002026
   -4    1    4    6    6    0.002286    0.000083
   -4    2   -2    1    1    0.009008   -0.000347
   -4    2   -2    2    1    0.002654   -0.001528
   -4    2   -2    3    1    0.000047   -0.001206
   -4    2   -2    4    1   -0.001226   -0.002756
   -4    2   -2    5    1    0.002370   -0.004927
   -4    2   -2    6    1    0.000755   -0.000459
   -4    2   -2    1    2    0.002539    0.001202
   -4    2   -2    2    2   -0.004407    0.000324
   -4    2   -2    3    2   -0.000333   -0.000537
   -4    2   -2    4    2    0.000477    0.002554
   -4    2   -2    5    2   -0.003284    0.001085
   -4    2   -2    6    2    0.000331    0.001746
   -4    2   -2    1    3   -0.003628    0.002074
   -4    2   -2    2    3    0.001247    0.000735
   -4    2   -2    3    3   -0.000675    0.000123
   -4    2   -2    4    3    0.000230    0.000251
   -4    2   -2    5    3   -0.000282    0.000375
   -4    2   -2    6    3   -0.000444   -0.000061
   -4    2   -2    1    4   -0.001607   -0.000287
   -4    2   -2    2    4    0.000821    0.000265
   -4    2   -2    3    4    0.000603    0.000795
   -4    2   -2    4    4    0.001107    0.000486
   -4    2   -2    5    4    0.000655    0.002023
   -4    2   -2    6    4   -0.002431    0.000275
   -4    2   -2    1    5   -0.000968    0.006199
   -4    2   -2    2    5   -0.003141    0.000187
   -4    2   -2    3    5   -0.000266    0.000472
   -4    2   -2    4    5    0.001254    0.004198
   -4    2   -2    5    5   -0.004050   -0.000508
   -4    2   -2    6    5   -0.000832    0.000423
   -4    2   -2    1    6    0.000543   -0.002880
   -4    2   -2    2    6    0.000236   -0.001246
   -4    2   -2    3    6   -0.000088    0.000083
   -4    2   -2    4    6   -0.001180   -0.000207
   -4    2   -2    5    6   -0.000047   -0.000993
   -4    2   -2    6    6    0.001444   -0.000157
   -4    2   -1    1    1   -0.005245   -0.000941
   -4    2   -1    2    1   -0.003074    0.002139
   -4    2   -1    3    1    0.001843    0.000387
   -4    2   -1    4    1    0.000290    0.003572
   -4    2   -1    5    1   -0.004244    0.004639
   -4    2   -1    6    1    0.002275    0.000323
   -4    2   -1    1    2   -0.002894   -0.000909
   -4    2   -1    2    2    0.001072   -0.001369
   -4    2   -1    3    2    0.000477    0.000555
   -4    2   -1    4    2   -0.001396   -0.001477
   -4    2   -1    5    2   -0.001395   -0.000424
   -4    2   -1    6    2    0.002378    0.001053
   -4    2   -1    1    3   -0.004444   -0.002202
   -4    2   -1    2    3   -0.000494   -0.000168
   -4    2   -1    3    3    0.001270    0.000781
   -4    2   -1    4    3    0.000084   -0.000010
   -4    2   -1    5    3    0.000976    0.000296
   -4    2   -1    6    3    0.000639    0.000513
   -4    2   -1    1    4    0.001486    0.002695
   -4    2   -1    2    4    0.001880   -0.001051
   -4    2   -1    3    4   -0.000107   -0.000853
   -4    2   -1    4    4   -0.000899   -0.000334
   -4    2   -1    5    4   -0.000502   -0.002245
   -4    2   -1    6    4    0.000399    0.000484
   -4    2   -1    1    5    0.000088   -0.006343
   -4    2   -1    2    5    0.001725   -0.000626
   -4    2   -1    3    5    0.001980   -0.000724
   -4    2   -1    4    5   -0.000509   -0.002719
   -4    2   -1    5    5    0.003166    0.001565
   -4    2   -1    6    5   -0.001216    0.000623
   -4    2   -1    1    6   -0.004000    0.003824
   -4    2   -1    2    6   -0.000628    0.000633
   -4    2   -1    3    6    0.000769   -0.000269
   -4    2   -1    4    6    0.000766   -0.000076
   -4    2   -1    5    6    0.000075   -0.000666
   -4    2   -1    6    6   -0.001447    0.000345
   -4    2    0    1    1    0.004411    0.000794
   -4    2    0    2    1    0.000604   -0.002074
   -4    2    0    3    1    0.004988    0.000566
   -4    2    0    4    1    0.002825   -0.002468
   -4    2    0    5    1    0.002143   -0.004177
   -4    2    0    6    1   -0.003833    0.001632
   -4    2    0    1    2   -0.002454    0.003448
   -4    2    0    2    2    0.003856    0.000559
   -4    2    0    3    2    0.004784    0.001105
   -4    2    0    4    2    0.004311   -0.001021
   -4    2    0    5    2    0.002350   -0.001267
   -4    2    0    6    2   -0.002743   -0.000057
   -4    2    0    1    3    0.007224    0.000043
   -4    2    0    2    3   -0.002057   -0.000215
   -4    2    0    3    3   -0.003273    0.000359
   -4    2    0    4    3   -0.001108   -0.000685
   -4    2    0    5    3   -0.002318   -0.000432
   -4    2    0    6    3    0.000709   -0.001156
   -4    2    0    1    4    0.009833   -0.005725
   -4    2    0    2    4   -0.000367    0.001384
   -4    2    0    3    4   -0.003961    0.000996
   -4    2    0    4    4   -0.003644    0.000692
   -4    2    0    5    4   -0.001901    0.003686
   -4    2    0    6    4    0.003551   -0.000459
   -4    2    0    1    5    0.014763    0.008018
   -4    2    0    2    5    0.002982    0.000105
   -4    2    0    3    5   -0.005718    0.000331
   -4    2    0    4    5   -0.001606    0.000699
   -4    2    0    5    5   -0.006174   -0.002527
   -4    2    0    6    5    0.006023    0.000779
   -4    2    0    1    6   -0.008925    0.000160
   -4    2    0    2    6   -0.001070    0.002036
   -4    2    0    3    6    0.001719   -0.000713
   -4    2    0    4    6    0.002309   -0.000304
   -4    2    0    5    6    0.001812    0.001807
   -4    2    0    6    6    0.000111    0.000384
   -4    2    1    1    1    0.026348   -0.000762
   -4    2    1    2    1    0.006999    0.002404
   -4    2    1    3    1   -0.000842   -0.000551
   -4    2    1    4    1    0.002547    0.001966
   -4    2    1    5    1   -0.007437    0.006490
   -4    2    1    6    1    0.007561    0.001555
   -4    2    1    1    2   -0.010365   -0.000328
   -4    2    1    2    2   -0.001655    0.000826
   -4    2    1    3    2    0.007495    0.000079
   -4    2    1    4    2    0.007127    0.001350
   -4    2    1    5    2    0.003172    0.000074
   -4    2    1    6    2   -0.006477   -0.001394
   -4    2    1    1    3    0.003213    0.001923
   -4    2    1    2    3   -0.001523   -0.001589
   -4    2    1    3    3   -0.000569   -0.000772
   -4    2    1    4    3   -0.001721    0.001178
   -4    2    1    5    3    0.000213   -0.000884
   -4    2    1    6    3   -0.002358    0.001289
   -4    2    1    1    4    0.011773    0.007311
   -4    2    1    2    4    0.000688   -0.002271
   -4    2    1    3    4   -0.005418   -0.001773
   -4    2    1    4    4   -0.005996   -0.000716
   -4    2    1    5    4    0.000008   -0.005100
   -4    2    1    6    4    0.001215   -0.000041
   -4    2    1    1    5   -0.014471   -0.007381
   -4    2    1    2    5    0.001188    0.000906
   -4    2    1    3    5    0.003487    0.001114
   -4    2    1    4    5   -0.002901    0.000257
   -4    2    1    5    5    0.009185    0.003249
   -4    2    1    6    5    0.000701   -0.002216
   -4    2    1    1    6   -0.007129   -0.002682
   -4    2    1    2    6   -0.002200    0.000149
   -4    2    1    3    6   -0.001019    0.002354
   -4    2    1    4    6    0.000589    0.001024
   -4    2    1    5    6   -0.000248    0.000413
   -4    2    1    6    6    0.004405   -0.001352
   -4    2    2    1    1    0.009431    0.004100
   -4    2    2    2    1    0.005682   -0.001584
   -4    2    2    3    1    0.001678    0.001349
   -4    2    2    4    1   -0.002971   -0.000143
   -4    2    2    5    1    0.006085   -0.005486
   -4    2    2    6    1    0.012698   -0.001688
   -4    2    2    1    2   -0.004868    0.001633
   -4    2    2    2    2   -0.007705    0.000521
   -4    2    2    3    2    0.003864    0.000193
   -4    2    2    4    2    0.007623    0.001065
   -4    2    2    5    2   -0.004164   -0.001162
   -4    2    2    6    2   -0.004548    0.001363
   -4    2    2    1    3    0.002083   -0.000131
   -4    2    2    2    3   -0.001236    0.000899
   -4    2    2    3    3   -0.004637    0.000141
   -4    2    2    4    3   -0.000485   -0.000721
   -4    2    2    5    3   -0.001479   -0.000010
   -4    2    2    6    3    0.001252    0.001150
   -4    2    2    1    4   -0.007472   -0.005549
   -4    2    2    2    4   -0.001453    0.003121
   -4    2    2    3    4   -0.001014    0.002107
   -4    2    2    4    4    0.001805    0.000093
   -4    2    2    5    4    0.002947    0.005562
   -4    2    2    6    4   -0.000977    0.000297
   -4    2    2    1    5   -0.006603    0.005994
   -4    2    2    2    5   -0.006039   -0.000218
   -4    2    2    3    5    0.003319   -0.000370
   -4    2    2    4    5    0.008687    0.001198
   -4    2    2    5    5   -0.004198   -0.004061
   -4    2    2    6    5   -0.009118   -0.000466
   -4    2    2    1    6   -0.006560   -0.000905
   -4    2    2    2    6   -0.002260   -0.001772
   -4    2    2    3    6    0.000614   -0.000683
   -4    2    2    4    6   -0.000230    0.000056
   -4    2    2    5    6   -0.001210   -0.000422
   -4    2    2    6    6    0.000810   -0.000795
   -4    2    3    1    1   -0.003444   -0.003216
   -4    2    3    2    1   -0.001980    0.002080
   -4    2    3    3    1    0.006577   -0.001605
   -4    2    3    4    1    0.003360    0.001143
   -4    2    3    5    1   -0.002728    0.003491
   -4    2    3    6    1   -0.000110   -0.000123
   -4    2    3    1    2    0.007163   -0.001410
   -4    2    3    2    2    0.001504   -0.001543
   -4    2    3    3    2   -0.000161    0.000475
   -4    2    3    4    2   -0.002376   -0.001014
   -4    2    3    5    2   -0.002131    0.000523
   -4    2    3    6    2    0.002861    0.002081
   -4    2    3    1    3   -0.004197   -0.000495
   -4    2    3    2    3    0.001806    0.001059
   -4    2    3    3    3    0.001813    0.001350
   -4    2    3    4    3    0.000597    0.000624
   -4    2    3    5    3    0.003321    0.001549
   -4    2    3    6    3    0.001887   -0.001346
   -4    2    3    1    4   -0.000657    0.004254
   -4    2    3    2    4   -0.002621   -0.002983
   -4    2    3    3    4   -0.000492   -0.001479
   -4    2    3    4    4    0.000477   -0.000387
   -4    2    3    5    4   -0.002454   -0.005407
   -4    2    3    6    4   -0.000560   -0.000170
[...]
    5   -3    1    4    6    0.002005    0.000422
    5   -3    1    5    6    0.000198   -0.000729
    5   -3    1    6    6   -0.000301    0.000043
    5   -2   -3    1    1    0.003406    0.007391
    5   -2   -3    2    1    0.000279    0.001083
    5   -2   -3    3    1    0.003620   -0.000794
    5   -2   -3    4    1    0.006942   -0.001086
    5   -2   -3    5    1    0.001484    0.004816
    5   -2   -3    6    1    0.002655   -0.000700
    5   -2   -3    1    2    0.000949   -0.000811
    5   -2   -3    2    2    0.007189   -0.001193
    5   -2   -3    3    2   -0.000114    0.000348
    5   -2   -3    4    2    0.002552    0.001528
    5   -2   -3    5    2    0.005207   -0.002665
    5   -2   -3    6    2    0.001931   -0.000302
    5   -2   -3    1    3   -0.006064   -0.001727
    5   -2   -3    2    3   -0.003405   -0.000558
    5   -2   -3    3    3    0.000953    0.000619
    5   -2   -3    4    3   -0.000538    0.001376
    5   -2   -3    5    3    0.000863   -0.001515
    5   -2   -3    6    3   -0.002644   -0.000307
    5   -2   -3    1    4    0.003324    0.001558
    5   -2   -3    2    4    0.000485    0.000595
    5   -2   -3    3    4    0.000995   -0.000872
    5   -2   -3    4    4   -0.003744   -0.000544
    5   -2   -3    5    4   -0.002465   -0.001498
    5   -2   -3    6    4   -0.000302    0.000417
    5   -2   -3    1    5    0.000424   -0.004372
    5   -2   -3    2    5    0.004386   -0.002685
    5   -2   -3    3    5   -0.003603   -0.000274
    5   -2   -3    4    5   -0.000450    0.001473
    5   -2   -3    5    5    0.000706   -0.006612
    5   -2   -3    6    5    0.000180    0.002291
    5   -2   -3    1    6   -0.005169   -0.000859
    5   -2   -3    2    6    0.000742    0.002461
    5   -2   -3    3    6   -0.001888    0.000906
    5   -2   -3    4    6    0.002066    0.000149
    5   -2   -3    5    6    0.003707    0.001492
    5   -2   -3    6    6    0.003361    0.000403
    5   -2   -2    1    1   -0.020519   -0.004840
    5   -2   -2    2    1    0.004802   -0.000354
    5   -2   -2    3    1   -0.003839    0.002548
    5   -2   -2    4    1   -0.000610    0.002563
    5   -2   -2    5    1    0.008109   -0.003691
    5   -2   -2    6    1    0.006702    0.000434
    5   -2   -2    1    2   -0.016715    0.005631
    5   -2   -2    2    2   -0.001561    0.002591
    5   -2   -2    3    2    0.002810   -0.000825
    5   -2   -2    4    2   -0.000616   -0.001575
    5   -2   -2    5    2    0.003018    0.001819
    5   -2   -2    6    2   -0.000415   -0.002419
    5   -2   -2    1    3    0.006046    0.002267
    5   -2   -2    2    3   -0.004396   -0.000043
    5   -2   -2    3    3    0.000984   -0.000602
    5   -2   -2    4    3    0.001400   -0.000849
    5   -2   -2    5    3   -0.006196    0.001403
    5   -2   -2    6    3    0.000518    0.000808
    5   -2   -2    1    4    0.001335   -0.000776
    5   -2   -2    2    4   -0.005958    0.001187
    5   -2   -2    3    4   -0.001275    0.000904
    5   -2   -2    4    4    0.001037   -0.000144
    5   -2   -2    5    4   -0.002115    0.002428
    5   -2   -2    6    4   -0.000501   -0.000332
    5   -2   -2    1    5   -0.003059    0.008325
    5   -2   -2    2    5    0.000547    0.002233
    5   -2   -2    3    5    0.005278   -0.000238
    5   -2   -2    4    5   -0.001479   -0.002055
    5   -2   -2    5    5    0.001212    0.004320
    5   -2   -2    6    5    0.001332   -0.003087
    5   -2   -2    1    6   -0.016314   -0.003250
    5   -2   -2    2    6   -0.000936   -0.001553
    5   -2   -2    3    6   -0.000009    0.000988
    5   -2   -2    4    6   -0.001013   -0.000074
    5   -2   -2    5    6    0.003884   -0.000303
    5   -2   -2    6    6   -0.000573   -0.001326
    5   -2   -1    1    1   -0.004106    0.001274
    5   -2   -1    2    1   -0.003370    0.003200
    5   -2   -1    3    1   -0.003433   -0.001450
    5   -2   -1    4    1   -0.007144   -0.001842
    5   -2   -1    5    1   -0.002295    0.004776
    5   -2   -1    6    1    0.004614   -0.002570
    5   -2   -1    1    2   -0.006299   -0.004959
    5   -2   -1    2    2   -0.010784    0.000366
    5   -2   -1    3    2   -0.001186   -0.000104
    5   -2   -1    4    2    0.001675    0.001260
    5   -2   -1    5    2   -0.005296    0.000491
    5   -2   -1    6    2   -0.002149    0.002979
    5   -2   -1    1    3   -0.005123   -0.002292
    5   -2   -1    2    3   -0.005782   -0.000132
    5   -2   -1    3    3    0.000244   -0.000307
    5   -2   -1    4    3    0.002235    0.000559
    5   -2   -1    5    3    0.005136   -0.000702
    5   -2   -1    6    3   -0.001304    0.000289
    5   -2   -1    1    4    0.000861   -0.000943
    5   -2   -1    2    4   -0.004091   -0.000488
    5   -2   -1    3    4   -0.000661   -0.000242
    5   -2   -1    4    4    0.001850    0.000367
    5   -2   -1    5    4    0.000420   -0.001194
    5   -2   -1    6    4   -0.001296    0.000231
    5   -2   -1    1    5    0.001711   -0.006675
    5   -2   -1    2    5   -0.006446   -0.000543
    5   -2   -1    3    5   -0.003271   -0.000020
    5   -2   -1    4    5    0.000928    0.001376
    5   -2   -1    5    5   -0.005453   -0.001480
    5   -2   -1    6    5   -0.002014    0.002634
    5   -2   -1    1    6    0.002154    0.004030
    5   -2   -1    2    6    0.001544   -0.001373
    5   -2   -1    3    6    0.000691   -0.000510
    5   -2   -1    4    6   -0.000360   -0.000036
    5   -2   -1    5    6   -0.004907   -0.002202
    5   -2   -1    6    6   -0.001157    0.000015
    5   -2    0    1    1    0.002947    0.000622
    5   -2    0    2    1    0.000296   -0.002807
    5   -2    0    3    1    0.000455   -0.000573
    5   -2    0    4    1   -0.000951   -0.000397
    5   -2    0    5    1   -0.007605   -0.005434
    5   -2    0    6    1    0.006636    0.003681
    5   -2    0    1    2    0.005055    0.003792
    5   -2    0    2    2    0.001494   -0.001996
    5   -2    0    3    2    0.002029   -0.000428
    5   -2    0    4    2   -0.000211   -0.000586
    5   -2    0    5    2   -0.000863   -0.001490
    5   -2    0    6    2    0.000231    0.000969
    5   -2    0    1    3    0.000144    0.000831
    5   -2    0    2    3   -0.002578    0.000905
    5   -2    0    3    3   -0.001996    0.001624
    5   -2    0    4    3    0.001852    0.000059
    5   -2    0    5    3   -0.001540    0.000892
    5   -2    0    6    3   -0.000559   -0.000784
    5   -2    0    1    4   -0.004954    0.001035
    5   -2    0    2    4   -0.000226   -0.001628
    5   -2    0    3    4    0.000403    0.000288
    5   -2    0    4    4    0.002183   -0.000253
    5   -2    0    5    4    0.003239   -0.000881
    5   -2    0    6    4   -0.001227   -0.000085
    5   -2    0    1    5    0.001120    0.005632
    5   -2    0    2    5    0.002890   -0.001671
    5   -2    0    3    5    0.002797   -0.000492
    5   -2    0    4    5    0.000728   -0.000833
    5   -2    0    5    5    0.005100   -0.000378
    5   -2    0    6    5   -0.001435   -0.000175
    5   -2    0    1    6    0.001546    0.000044
    5   -2    0    2    6    0.000355    0.002203
    5   -2    0    3    6   -0.000330   -0.000051
    5   -2    0    4    6   -0.003043    0.000053
    5   -2    0    5    6   -0.001956    0.002680
    5   -2    0    6    6    0.002028    0.000552
    5   -1   -3    1    1    0.011164   -0.004865
    5   -1   -3    2    1   -0.001682   -0.003062
    5   -1   -3    3    1   -0.000045   -0.001605
    5   -1   -3    4    1    0.012609   -0.000105
    5   -1   -3    5    1   -0.000975   -0.000440
    5   -1   -3    6    1   -0.003240    0.002648
    5   -1   -3    1    2    0.001318    0.000267
    5   -1   -3    2    2   -0.012284    0.002008
    5   -1   -3    3    2    0.000008   -0.000096
    5   -1   -3    4    2    0.001763    0.000722
    5   -1   -3    5    2   -0.007605    0.003015
    5   -1   -3    6    2   -0.002047    0.000505
    5   -1   -3    1    3    0.002680    0.001458
    5   -1   -3    2    3    0.001294    0.000174
    5   -1   -3    3    3    0.004971   -0.000141
    5   -1   -3    4    3   -0.002465   -0.000364
    5   -1   -3    5    3   -0.000771    0.000946
    5   -1   -3    6    3   -0.002623   -0.000428
    5   -1   -3    1    4    0.012417   -0.001496
    5   -1   -3    2    4    0.002860   -0.001756
    5   -1   -3    3    4   -0.001249   -0.001053
    5   -1   -3    4    4   -0.004867    0.000051
    5   -1   -3    5    4   -0.007005    0.000114
    5   -1   -3    6    4   -0.000355   -0.000207
    5   -1   -3    1    5   -0.012115    0.000242
    5   -1   -3    2    5   -0.008091    0.001717
    5   -1   -3    3    5   -0.000716   -0.000867
    5   -1   -3    4    5   -0.004270    0.000485
    5   -1   -3    5    5   -0.001659    0.002393
    5   -1   -3    6    5   -0.001388   -0.002080
    5   -1   -3    1    6   -0.001092    0.001212
    5   -1   -3    2    6   -0.001897   -0.003106
    5   -1   -3    3    6   -0.003055   -0.000984
    5   -1   -3    4    6    0.000222   -0.000104
    5   -1   -3    5    6    0.000811   -0.001916
    5   -1   -3    6    6    0.003781    0.000328
    5   -1   -2    1    1   -0.008215    0.002538
    5   -1   -2    2    1   -0.008149    0.002358
    5   -1   -2    3    1   -0.004721   -0.001426
    5   -1   -2    4    1   -0.002980   -0.000816
    5   -1   -2    5    1    0.002102    0.000771
    5   -1   -2    6    1    0.003650   -0.000366
    5   -1   -2    1    2    0.010447   -0.002806
    5   -1   -2    2    2   -0.003289   -0.002894
    5   -1   -2    3    2   -0.000378   -0.000005
    5   -1   -2    4    2    0.000999   -0.000035
    5   -1   -2    5    2   -0.003336   -0.002160
    5   -1   -2    6    2    0.003674    0.002863
    5   -1   -2    1    3    0.018975   -0.002251
    5   -1   -2    2    3    0.003893   -0.000301
    5   -1   -2    3    3   -0.001897   -0.000002
    5   -1   -2    4    3    0.001511    0.000186
    5   -1   -2    5    3   -0.003683   -0.000322
    5   -1   -2    6    3   -0.000656    0.000740
    5   -1   -2    1    4    0.010747   -0.001554
    5   -1   -2    2    4    0.007034   -0.000252
    5   -1   -2    3    4    0.001399    0.000791
    5   -1   -2    4    4    0.000247    0.000266
    5   -1   -2    5    4    0.002801   -0.000256
    5   -1   -2    6    4    0.000264   -0.000391
    5   -1   -2    1    5    0.014829   -0.002513
    5   -1   -2    2    5   -0.000589   -0.000709
    5   -1   -2    3    5   -0.002413    0.001306
    5   -1   -2    4    5    0.001010    0.000399
    5   -1   -2    5    5   -0.008368   -0.000750
    5   -1   -2    6    5    0.001755    0.002839
    5   -1   -2    1    6   -0.012603    0.002234
    5   -1   -2    2    6   -0.005501    0.001747
    5   -1   -2    3    6   -0.000087    0.000056
    5   -1   -2    4    6   -0.000783   -0.000190
    5   -1   -2    5    6    0.000977    0.000841
    5   -1   -2    6    6    0.002116    0.000607
    5   -1   -1    1    1   -0.019265    0.001607
    5   -1   -1    2    1   -0.005749   -0.002459
    5   -1   -1    3    1    0.001063    0.001912
    5   -1   -1    4    1   -0.005010   -0.000685
    5   -1   -1    5    1   -0.006568   -0.001699
    5   -1   -1    6    1    0.003166    0.002295
    5   -1   -1    1    2   -0.004701    0.003265
    5   -1   -1    2    2    0.006899   -0.000128
    5   -1   -1    3    2    0.002764    0.001096
    5   -1   -1    4    2    0.001557   -0.000405
    5   -1   -1    5    2    0.009511   -0.000215
    5   -1   -1    6    2   -0.000513   -0.002856
    5   -1   -1    1    3    0.000421   -0.001732
    5   -1   -1    2    3    0.003215   -0.001322
    5   -1   -1    3    3   -0.002272   -0.000045
    5   -1   -1    4    3   -0.000567    0.000198
    5   -1   -1    5    3    0.006536    0.000724
    5   -1   -1    6    3    0.001356   -0.000754
    5   -1   -1    1    4    0.001767    0.001549
    5   -1   -1    2    4    0.001901    0.000301
    5   -1   -1    3    4   -0.000967   -0.001082
    5   -1   -1    4    4    0.001031   -0.000422
    5   -1   -1    5    4    0.002271   -0.000402
    5   -1   -1    6    4   -0.001126   -0.000231
    5   -1   -1    1    5   -0.005522    0.003472
    5   -1   -1    2    5    0.009355   -0.000212
    5   -1   -1    3    5    0.004671   -0.000992
    5   -1   -1    4    5    0.001869   -0.000367
    5   -1   -1    5    5    0.013557   -0.001168
    5   -1   -1    6    5   -0.001839   -0.002749
    5   -1   -1    1    6    0.003131   -0.002077
    5   -1   -1    2    6   -0.001921    0.002640
    5   -1   -1    3    6    0.000320    0.000329
    5   -1   -1    4    6   -0.001296    0.000033
    5   -1   -1    5    6   -0.002703    0.002297
    5   -1   -1    6    6    0.000810    0.000155
    5    0   -3    1    1   -0.004037   -0.001813
    5    0   -3    2    1    0.003554    0.003096
    5    0   -3    3    1   -0.000705    0.002564
    5    0   -3    4    1    0.006989    0.001936
    5    0   -3    5    1    0.000529    0.004710
    5    0   -3    6    1   -0.004289    0.000655
    5    0   -3    1    2    0.007867   -0.000113
    5    0   -3    2    2    0.011117   -0.001776
    5    0   -3    3    2    0.000965    0.000671
    5    0   -3    4    2   -0.002074   -0.001945
    5    0   -3    5    2    0.003500   -0.001804
    5    0   -3    6    2   -0.000280   -0.001331
    5    0   -3    1    3    0.004186   -0.000428
    5    0   -3    2    3    0.002173   -0.000122
    5    0   -3    3    3    0.002349    0.000404
    5    0   -3    4    3    0.000122    0.000809
    5    0   -3    5    3   -0.002144    0.000064
    5    0   -3    6    3   -0.002568   -0.000334
    5    0   -3    1    4   -0.004577   -0.002163
    5    0   -3    2    4   -0.000017    0.001337
    5    0   -3    3    4   -0.000088    0.000610
    5    0   -3    4    4   -0.001923    0.000322
    5    0   -3    5    4   -0.000275    0.001901
    5    0   -3    6    4   -0.000342   -0.000091
    5    0   -3    1    5    0.003377   -0.003798
    5    0   -3    2    5    0.005922   -0.000893
    5    0   -3    3    5    0.003392    0.001102
    5    0   -3    4    5   -0.004793   -0.001854
    5    0   -3    5    5    0.002167    0.002841
    5    0   -3    6    5    0.004373   -0.000227
    5    0   -3    1    6    0.006079    0.000208
    5    0   -3    2    6    0.000709    0.001923
    5    0   -3    3    6   -0.002071   -0.000375
    5    0   -3    4    6   -0.000211   -0.000133
    5    0   -3    5    6   -0.002075    0.001691
    5    0   -3    6    6    0.002435    0.000208
    5    0   -2    1    1    0.002853    0.002260
    5    0   -2    2    1    0.003081   -0.003212
    5    0   -2    3    1    0.001395    0.000042
    5    0   -2    4    1   -0.000933   -0.001103
    5    0   -2    5    1   -0.001050   -0.004030
    5    0   -2    6    1    0.002465   -0.000476
    5    0   -2    1    2   -0.000713    0.001140
    5    0   -2    2    2    0.002877    0.002305
    5    0   -2    3    2   -0.001360   -0.000390
    5    0   -2    4    2    0.002581    0.001283
    5    0   -2    5    2    0.003901    0.001497
    5    0   -2    6    2   -0.002489   -0.002193
    5    0   -2    1    3    0.000366    0.002273
    5    0   -2    2    3    0.003514   -0.000057
    5    0   -2    3    3   -0.002521   -0.001268
    5    0   -2    4    3   -0.000542   -0.000336
    5    0   -2    5    3    0.003244   -0.001137
    5    0   -2    6    3   -0.002724    0.000286
    5    0   -2    1    4   -0.000058    0.001725
    5    0   -2    2    4    0.000622   -0.000358
    5    0   -2    3    4   -0.000406   -0.000030
    5    0   -2    4    4    0.001122    0.000165
    5    0   -2    5    4   -0.000155   -0.001098
    5    0   -2    6    4   -0.003345    0.000065
    5    0   -2    1    5   -0.005922    0.003870
    5    0   -2    2    5    0.000316    0.000827
    5    0   -2    3    5   -0.002018   -0.000642
    5    0   -2    4    5    0.003072    0.001499
    5    0   -2    5    5    0.004284   -0.002503
    5    0   -2    6    5   -0.003615   -0.002436
    5    0   -2    1    6   -0.001165   -0.004217
    5    0   -2    2    6    0.000198   -0.000706
    5    0   -2    3    6    0.000908    0.000866
    5    0   -2    4    6   -0.001231    0.000269
    5    0   -2    5    6    0.001512    0.000318
    5    0   -2    6    6    0.003141   -0.001129
    5    1   -3    1    1    0.001613   -0.000736
    5    1   -3    2    1   -0.003873   -0.001893
    5    1   -3    3    1   -0.003090   -0.000659
    5    1   -3    4    1   -0.001884   -0.003401
    5    1   -3    5    1    0.001888   -0.005608
    5    1   -3    6    1   -0.003369   -0.000635
    5    1   -3    1    2   -0.004020    0.000683
    5    1   -3    2    2   -0.006517    0.000697
    5    1   -3    3    2   -0.000686   -0.000765
    5    1   -3    4    2    0.000765    0.002150
    5    1   -3    5    2   -0.002866    0.000352
    5    1   -3    6    2   -0.002159    0.002092
    5    1   -3    1    3   -0.002271    0.001931
    5    1   -3    2    3   -0.000729    0.001006
    5    1   -3    3    3   -0.000035    0.000057
    5    1   -3    4    3    0.001418    0.000186
    5    1   -3    5    3   -0.000138    0.000114
    5    1   -3    6    3   -0.000364   -0.000032
    5    1   -3    1    4   -0.001519    0.001089
    5    1   -3    2    4    0.000813   -0.000415
    5    1   -3    3    4    0.001320    0.000640
    5    1   -3    4    4    0.000781    0.000515
    5    1   -3    5    4    0.002591    0.000886
    5    1   -3    6    4    0.002235   -0.000120
    5    1   -3    1    5    0.000768    0.005341
    5    1   -3    2    5   -0.002528    0.000445
    5    1   -3    3    5   -0.000197    0.000745
    5    1   -3    4    5    0.003269    0.004571
    5    1   -3    5    5   -0.004102   -0.000683
    5    1   -3    6    5   -0.000674    0.000903
    5    1   -3    1    6    0.000660   -0.003002
    5    1   -3    2    6    0.000391   -0.001289
    5    1   -3    3    6    0.000149    0.000476
    5    1   -3    4    6    0.000863   -0.000003
    5    1   -3    5    6   -0.000158   -0.000568
    5    1   -3    6    6   -0.001876    0.000129
    6   -2   -2    1    1    0.040723    0.001224
    6   -2   -2    2    1    0.007382   -0.001349
    6   -2   -2    3    1   -0.000188    0.002777
    6   -2   -2    4    1    0.013801    0.000896
    6   -2   -2    5    1   -0.010955    0.001037
    6   -2   -2    6    1    0.001321    0.005171
    6   -2   -2    1    2    0.010378    0.005570
    6   -2   -2    2    2    0.016660   -0.000182
    6   -2   -2    3    2    0.000117    0.000840
    6   -2   -2    4    2   -0.000040   -0.000931
    6   -2   -2    5    2    0.007250   -0.000486
    6   -2   -2    6    2    0.000042   -0.002214
    6   -2   -2    1    3   -0.002488    0.003294
    6   -2   -2    2    3    0.002447    0.000478
    6   -2   -2    3    3   -0.000623    0.000187
    6   -2   -2    4    3   -0.001103    0.000259
    6   -2   -2    5    3    0.002500   -0.000392
    6   -2   -2    6    3    0.000380   -0.000732
    6   -2   -2    1    4   -0.019336    0.000861
    6   -2   -2    2    4   -0.000191    0.000881
    6   -2   -2    3    4   -0.000081   -0.000682
    6   -2   -2    4    4   -0.003178    0.000005
    6   -2   -2    5    4    0.001806    0.000901
    6   -2   -2    6    4   -0.000196   -0.000459
    6   -2   -2    1    5   -0.008155    0.003420
    6   -2   -2    2    5    0.008087   -0.000633
    6   -2   -2    3    5    0.000352    0.000003
    6   -2   -2    4    5    0.001678   -0.001057
    6   -2   -2    5    5    0.013915   -0.001049
    6   -2   -2    6    5   -0.001153   -0.002977
    6   -2   -2    1    6    0.007147   -0.003418
    6   -2   -2    2    6    0.000322    0.002349
    6   -2   -2    3    6   -0.000919   -0.000061
    6   -2   -2    4    6   -0.000523   -0.000050
    6   -2   -2    5    6   -0.001803    0.002506
    6   -2   -2    6    6   -0.000814   -0.000183
